 Entering Gaussian System, Link 0=g16
 Input=/home/s/spoel/wd/Liquids/MOLECULES/RUN/compounds/1-butanol/1-butanol-3-oep.com
 Output=/home/s/spoel/wd/Liquids/MOLECULES/RUN/compounds/1-butanol/1-butanol-3-oep.log
 Initial command:
 /hpc2n/eb/software/Core/gaussian/16.A.03-AVX2/g16/l1.exe "/scratch/spoel/home/s/spoel/wd/Liquids/MOLECULES/RUN/compounds/1-butanol/1-butanol-3-oep.com/Gau-423521.inp" -scrdir="/scratch/spoel/home/s/spoel/wd/Liquids/MOLECULES/RUN/compounds/1-butanol/1-butanol-3-oep.com/"
 Entering Link 1 = /hpc2n/eb/software/Core/gaussian/16.A.03-AVX2/g16/l1.exe PID=    423524.
  
 Copyright (c) 1988,1990,1992,1993,1995,1998,2003,2009,2016,
            Gaussian, Inc.  All Rights Reserved.
  
 This is part of the Gaussian(R) 16 program.  It is based on
 the Gaussian(R) 09 system (copyright 2009, Gaussian, Inc.),
 the Gaussian(R) 03 system (copyright 2003, Gaussian, Inc.),
 the Gaussian(R) 98 system (copyright 1998, Gaussian, Inc.),
 the Gaussian(R) 94 system (copyright 1995, Gaussian, Inc.),
 the Gaussian 92(TM) system (copyright 1992, Gaussian, Inc.),
 the Gaussian 90(TM) system (copyright 1990, Gaussian, Inc.),
 the Gaussian 88(TM) system (copyright 1988, Gaussian, Inc.),
 the Gaussian 86(TM) system (copyright 1986, Carnegie Mellon
 University), and the Gaussian 82(TM) system (copyright 1983,
 Carnegie Mellon University). Gaussian is a federally registered
 trademark of Gaussian, Inc.
  
 This software contains proprietary and confidential information,
 including trade secrets, belonging to Gaussian, Inc.
  
 This software is provided under written license and may be
 used, copied, transmitted, or stored only in accord with that
 written license.
  
 The following legend is applicable only to US Government
 contracts under FAR:
  
                    RESTRICTED RIGHTS LEGEND
  
 Use, reproduction and disclosure by the US Government is
 subject to restrictions as set forth in subparagraphs (a)
 and (c) of the Commercial Computer Software - Restricted
 Rights clause in FAR 52.227-19.
  
 Gaussian, Inc.
 340 Quinnipiac St., Bldg. 40, Wallingford CT 06492
  
  
 ---------------------------------------------------------------
 Warning -- This program may not be used in any manner that
 competes with the business of Gaussian, Inc. or will provide
 assistance to any competitor of Gaussian, Inc.  The licensee
 of this program is prohibited from giving any competitor of
 Gaussian, Inc. access to this program.  By using this program,
 the user acknowledges that Gaussian, Inc. is engaged in the
 business of creating and licensing software in the field of
 computational chemistry and represents and warrants to the
 licensee that it is not a competitor of Gaussian, Inc. and that
 it will not use this program in any manner prohibited above.
 ---------------------------------------------------------------
  

 Cite this work as:
 Gaussian 16, Revision A.03,
 M. J. Frisch, G. W. Trucks, H. B. Schlegel, G. E. Scuseria, 
 M. A. Robb, J. R. Cheeseman, G. Scalmani, V. Barone, 
 G. A. Petersson, H. Nakatsuji, X. Li, M. Caricato, A. V. Marenich, 
 J. Bloino, B. G. Janesko, R. Gomperts, B. Mennucci, H. P. Hratchian, 
 J. V. Ortiz, A. F. Izmaylov, J. L. Sonnenberg, D. Williams-Young, 
 F. Ding, F. Lipparini, F. Egidi, J. Goings, B. Peng, A. Petrone, 
 T. Henderson, D. Ranasinghe, V. G. Zakrzewski, J. Gao, N. Rega, 
 G. Zheng, W. Liang, M. Hada, M. Ehara, K. Toyota, R. Fukuda, 
 J. Hasegawa, M. Ishida, T. Nakajima, Y. Honda, O. Kitao, H. Nakai, 
 T. Vreven, K. Throssell, J. A. Montgomery, Jr., J. E. Peralta, 
 F. Ogliaro, M. J. Bearpark, J. J. Heyd, E. N. Brothers, K. N. Kudin, 
 V. N. Staroverov, T. A. Keith, R. Kobayashi, J. Normand, 
 K. Raghavachari, A. P. Rendell, J. C. Burant, S. S. Iyengar, 
 J. Tomasi, M. Cossi, J. M. Millam, M. Klene, C. Adamo, R. Cammi, 
 J. W. Ochterski, R. L. Martin, K. Morokuma, O. Farkas, 
 J. B. Foresman, and D. J. Fox, Gaussian, Inc., Wallingford CT, 2016.
 
 ******************************************
 Gaussian 16:  ES64L-G16RevA.03 25-Dec-2016
                20-Dec-2017 
 ******************************************
 %mem=24500MB
 %chk=/home/s/spoel/wd/Liquids/MOLECULES/RUN/compounds/1-butanol/1-butanol-3-oep.
 chk
 ----------------------------------------------------------------------
 #P B3LYP/Gen Opt=(Redundant, verytight) symm=(loose,follow) Int(Grid=S
 uperFineGrid) Pop=(MK,Hirshfeld,ReadRadii) iop(6/33=2) iop(6/42=6) Pol
 ar Freq maxdisk=64GB
 ----------------------------------------------------------------------
 1/7=1,18=20,19=15,26=5,38=1/1,3;
 2/9=110,12=2,17=4,18=3,40=1/2;
 3/5=7,11=2,25=1,30=1,71=1,74=-5,75=-7/1,2,3;
 4//1;
 5/5=2,38=5,98=1/2;
 6/7=2,8=2,9=2,10=2,15=8,20=101,28=1,33=2,42=6,79=1/1,2;
 7//1,2,3,16;
 1/7=1,18=20,19=15,26=5/3(2);
 2/9=110,15=5/2;
 99//99;
 2/9=110,15=5/2;
 3/5=7,6=1,11=2,25=1,30=1,71=1,74=-5,75=-7,82=7/1,2,3;
 4/5=5,16=3,69=1/1;
 5/5=2,38=5,98=1/2;
 7//1,2,3,16;
 1/7=1,18=20,19=15,26=5/3(-5);
 2/9=110,15=5/2;
 6/7=2,8=2,9=2,10=2,15=8,19=2,20=101,28=1,33=2,42=6,79=1/1,2;
 99/9=1/99;
 Leave Link    1 at Wed Dec 20 22:43:13 2017, MaxMem=  3211264000 cpu:               0.1 elap:               0.1
 (Enter /hpc2n/eb/software/Core/gaussian/16.A.03-AVX2/g16/l101.exe)
 ---------
 1-butanol
 ---------
 Symbolic Z-matrix:
 Charge =  0 Multiplicity = 1
 C                    -2.5155   -0.2946    0.0001 
 H                    -3.3973    0.3475    0. 
 H                    -2.5726   -0.9372   -0.8806 
 H                    -2.5724   -0.9371    0.8808 
 C                    -1.2274    0.527    -0.0001 
 H                    -1.2169    1.1845    0.8744 
 H                    -1.2168    1.1843   -0.8747 
 C                     0.0322   -0.34      0. 
 H                     0.0357   -0.9934   -0.8765 
 H                     0.0356   -0.9935    0.8765 
 C                     1.3115    0.4763    0.0001 
 H                     1.3442    1.1219    0.8857 
 H                     1.3442    1.1221   -0.8855 
 O                     2.4217   -0.4243   -0.0001 
 H                     3.2381    0.0827    0.0007 
 
 ITRead=  0  0  0  0  0  0  0  0  0  0  0  0  0  0  0
 MicOpt= -1 -1 -1 -1 -1 -1 -1 -1 -1 -1 -1 -1 -1 -1 -1
 NAtoms=     15 NQM=       15 NQMF=       0 NMMI=      0 NMMIF=      0
                NMic=       0 NMicF=      0.
                    Isotopes and Nuclear Properties:
 (Nuclear quadrupole moments (NQMom) in fm**2, nuclear magnetic moments (NMagM)
  in nuclear magnetons)

  Atom         1           2           3           4           5           6           7           8           9          10
 IAtWgt=          12           1           1           1          12           1           1          12           1           1
 AtmWgt=  12.0000000   1.0078250   1.0078250   1.0078250  12.0000000   1.0078250   1.0078250  12.0000000   1.0078250   1.0078250
 NucSpn=           0           1           1           1           0           1           1           0           1           1
 AtZEff=  -0.0000000  -0.0000000  -0.0000000  -0.0000000  -0.0000000  -0.0000000  -0.0000000  -0.0000000  -0.0000000  -0.0000000
 NQMom=    0.0000000   0.0000000   0.0000000   0.0000000   0.0000000   0.0000000   0.0000000   0.0000000   0.0000000   0.0000000
 NMagM=    0.0000000   2.7928460   2.7928460   2.7928460   0.0000000   2.7928460   2.7928460   0.0000000   2.7928460   2.7928460
 AtZNuc=   6.0000000   1.0000000   1.0000000   1.0000000   6.0000000   1.0000000   1.0000000   6.0000000   1.0000000   1.0000000

  Atom        11          12          13          14          15
 IAtWgt=          12           1           1          16           1
 AtmWgt=  12.0000000   1.0078250   1.0078250  15.9949146   1.0078250
 NucSpn=           0           1           1           0           1
 AtZEff=  -0.0000000  -0.0000000  -0.0000000  -0.0000000  -0.0000000
 NQMom=    0.0000000   0.0000000   0.0000000   0.0000000   0.0000000
 NMagM=    0.0000000   2.7928460   2.7928460   0.0000000   2.7928460
 AtZNuc=   6.0000000   1.0000000   1.0000000   8.0000000   1.0000000
 Leave Link  101 at Wed Dec 20 22:43:15 2017, MaxMem=  3211264000 cpu:               1.9 elap:               2.0
 (Enter /hpc2n/eb/software/Core/gaussian/16.A.03-AVX2/g16/l103.exe)

 GradGradGradGradGradGradGradGradGradGradGradGradGradGradGradGradGradGrad
 Berny optimization.
 Initialization pass.
                           ----------------------------
                           !    Initial Parameters    !
                           ! (Angstroms and Degrees)  !
 --------------------------                            --------------------------
 ! Name  Definition              Value          Derivative Info.                !
 --------------------------------------------------------------------------------
 ! R1    R(1,2)                  1.0908         estimate D2E/DX2                !
 ! R2    R(1,3)                  1.0917         estimate D2E/DX2                !
 ! R3    R(1,4)                  1.0916         estimate D2E/DX2                !
 ! R4    R(1,5)                  1.5278         estimate D2E/DX2                !
 ! R5    R(5,6)                  1.0942         estimate D2E/DX2                !
 ! R6    R(5,7)                  1.0941         estimate D2E/DX2                !
 ! R7    R(5,8)                  1.5291         estimate D2E/DX2                !
 ! R8    R(8,9)                  1.0933         estimate D2E/DX2                !
 ! R9    R(8,10)                 1.0933         estimate D2E/DX2                !
 ! R10   R(8,11)                 1.5175         estimate D2E/DX2                !
 ! R11   R(11,12)                1.0964         estimate D2E/DX2                !
 ! R12   R(11,13)                1.0965         estimate D2E/DX2                !
 ! R13   R(11,14)                1.4296         estimate D2E/DX2                !
 ! R14   R(14,15)                0.961          estimate D2E/DX2                !
 ! A1    A(2,1,3)              107.706          estimate D2E/DX2                !
 ! A2    A(2,1,4)              107.7217         estimate D2E/DX2                !
 ! A3    A(2,1,5)              111.4077         estimate D2E/DX2                !
 ! A4    A(3,1,4)              107.5578         estimate D2E/DX2                !
 ! A5    A(3,1,5)              111.1326         estimate D2E/DX2                !
 ! A6    A(4,1,5)              111.1344         estimate D2E/DX2                !
 ! A7    A(1,5,6)              109.3379         estimate D2E/DX2                !
 ! A8    A(1,5,7)              109.35           estimate D2E/DX2                !
 ! A9    A(1,5,8)              112.9285         estimate D2E/DX2                !
 ! A10   A(6,5,7)              106.1285         estimate D2E/DX2                !
 ! A11   A(6,5,8)              109.4362         estimate D2E/DX2                !
 ! A12   A(7,5,8)              109.4324         estimate D2E/DX2                !
 ! A13   A(5,8,9)              109.9654         estimate D2E/DX2                !
 ! A14   A(5,8,10)             109.9692         estimate D2E/DX2                !
 ! A15   A(5,8,11)             112.9186         estimate D2E/DX2                !
 ! A16   A(9,8,10)             106.5886         estimate D2E/DX2                !
 ! A17   A(9,8,11)             108.593          estimate D2E/DX2                !
 ! A18   A(10,8,11)            108.5932         estimate D2E/DX2                !
 ! A19   A(8,11,12)            109.9942         estimate D2E/DX2                !
 ! A20   A(8,11,13)            109.9915         estimate D2E/DX2                !
 ! A21   A(8,11,14)            108.4096         estimate D2E/DX2                !
 ! A22   A(12,11,13)           107.7378         estimate D2E/DX2                !
 ! A23   A(12,11,14)           110.359          estimate D2E/DX2                !
 ! A24   A(13,11,14)           110.3499         estimate D2E/DX2                !
 ! A25   A(11,14,15)           109.1098         estimate D2E/DX2                !
 ! D1    D(2,1,5,6)             57.9045         estimate D2E/DX2                !
 ! D2    D(2,1,5,7)            -57.8979         estimate D2E/DX2                !
 ! D3    D(2,1,5,8)           -179.9987         estimate D2E/DX2                !
 ! D4    D(3,1,5,6)            178.0209         estimate D2E/DX2                !
 ! D5    D(3,1,5,7)             62.2186         estimate D2E/DX2                !
 ! D6    D(3,1,5,8)            -59.8822         estimate D2E/DX2                !
 ! D7    D(4,1,5,6)            -62.2332         estimate D2E/DX2                !
 ! D8    D(4,1,5,7)           -178.0356         estimate D2E/DX2                !
 ! D9    D(4,1,5,8)             59.8637         estimate D2E/DX2                !
 ! D10   D(1,5,8,9)             58.5523         estimate D2E/DX2                !
 ! D11   D(1,5,8,10)           -58.5248         estimate D2E/DX2                !
 ! D12   D(1,5,8,11)          -179.9878         estimate D2E/DX2                !
 ! D13   D(6,5,8,9)           -179.406          estimate D2E/DX2                !
 ! D14   D(6,5,8,10)            63.5169         estimate D2E/DX2                !
 ! D15   D(6,5,8,11)           -57.9461         estimate D2E/DX2                !
 ! D16   D(7,5,8,9)            -63.5022         estimate D2E/DX2                !
 ! D17   D(7,5,8,10)           179.4207         estimate D2E/DX2                !
 ! D18   D(7,5,8,11)            57.9577         estimate D2E/DX2                !
 ! D19   D(5,8,11,12)           59.2624         estimate D2E/DX2                !
 ! D20   D(5,8,11,13)          -59.2508         estimate D2E/DX2                !
 ! D21   D(5,8,11,14)         -179.9878         estimate D2E/DX2                !
 ! D22   D(9,8,11,12)         -178.5048         estimate D2E/DX2                !
 ! D23   D(9,8,11,13)           62.982          estimate D2E/DX2                !
 ! D24   D(9,8,11,14)          -57.755          estimate D2E/DX2                !
 ! D25   D(10,8,11,12)         -62.9754         estimate D2E/DX2                !
 ! D26   D(10,8,11,13)         178.5113         estimate D2E/DX2                !
 ! D27   D(10,8,11,14)          57.7743         estimate D2E/DX2                !
 ! D28   D(8,11,14,15)        -179.9534         estimate D2E/DX2                !
 ! D29   D(12,11,14,15)        -59.4299         estimate D2E/DX2                !
 ! D30   D(13,11,14,15)         59.532          estimate D2E/DX2                !
 --------------------------------------------------------------------------------
 Trust Radius=3.00D-01 FncErr=1.00D-07 GrdErr=1.00D-07 EigMax=2.50D+02 EigMin=1.00D-04
 Number of steps in this run=     79 maximum allowed number of steps=    100.
 GradGradGradGradGradGradGradGradGradGradGradGradGradGradGradGradGradGrad

 Leave Link  103 at Wed Dec 20 22:43:15 2017, MaxMem=  3211264000 cpu:               0.0 elap:               0.0
 (Enter /hpc2n/eb/software/Core/gaussian/16.A.03-AVX2/g16/l202.exe)
                          Input orientation:                          
 ---------------------------------------------------------------------
 Center     Atomic      Atomic             Coordinates (Angstroms)
 Number     Number       Type             X           Y           Z
 ---------------------------------------------------------------------
      1          6           0       -2.515500   -0.294600    0.000100
      2          1           0       -3.397300    0.347500    0.000000
      3          1           0       -2.572600   -0.937200   -0.880600
      4          1           0       -2.572400   -0.937100    0.880800
      5          6           0       -1.227400    0.527000   -0.000100
      6          1           0       -1.216900    1.184500    0.874400
      7          1           0       -1.216800    1.184300   -0.874700
      8          6           0        0.032200   -0.340000    0.000000
      9          1           0        0.035700   -0.993400   -0.876500
     10          1           0        0.035600   -0.993500    0.876500
     11          6           0        1.311500    0.476300    0.000100
     12          1           0        1.344200    1.121900    0.885700
     13          1           0        1.344200    1.122100   -0.885500
     14          8           0        2.421700   -0.424300   -0.000100
     15          1           0        3.238100    0.082700    0.000700
 ---------------------------------------------------------------------
                    Distance matrix (angstroms):
                    1          2          3          4          5
     1  C    0.000000
     2  H    1.090809   0.000000
     3  H    1.091709   1.762396   0.000000
     4  H    1.091639   1.762517   1.761400   0.000000
     5  C    1.527818   2.177312   2.174563   2.174534   0.000000
     6  H    2.153718   2.493850   3.069130   2.517659   1.094151
     7  H    2.153844   2.493976   2.517735   3.069164   1.094112
     8  C    2.548104   3.497732   2.813732   2.813588   1.529144
     9  H    2.786641   3.788371   2.608909   3.145387   2.162201
    10  H    2.786512   3.788316   3.145358   2.608613   2.162294
    11  C    3.903872   4.710561   4.226091   4.225874   2.539406
    12  H    4.205716   4.885282   4.764560   4.424846   2.784183
    13  H    4.205783   4.885278   4.425162   4.764439   2.784098
    14  O    4.938903   5.869960   5.097193   5.097056   3.771061
    15  H    5.765958   6.640682   5.964991   5.964602   4.487549
                    6          7          8          9         10
     6  H    0.000000
     7  H    1.749100   0.000000
     8  C    2.156137   2.156059   0.000000
     9  H    3.062337   2.512198   1.093250   0.000000
    10  H    2.512458   3.062355   1.093310   1.753000   0.000000
    11  C    2.767445   2.767461   1.517549   2.134505   2.134551
    12  H    2.561890   3.108315   2.154753   3.048281   2.487456
    13  H    3.108114   2.561778   2.154806   2.487487   3.048416
    14  O    4.073377   4.073230   2.390987   2.604793   2.604974
    15  H    4.671653   4.671829   3.233647   3.490392   3.490163
                   11         12         13         14         15
    11  C    0.000000
    12  H    1.096429   0.000000
    13  H    1.096547   1.771200   0.000000
    14  O    1.429554   2.082398   2.082377   0.000000
    15  H    1.966395   2.334528   2.335072   0.961020   0.000000
 Stoichiometry    C4H10O
 Framework group  C1[X(C4H10O)]
 Deg. of freedom    39
 Full point group                 C1      NOp   1
 Largest Abelian subgroup         C1      NOp   1
 Largest concise Abelian subgroup C1      NOp   1
                         Standard orientation:                         
 ---------------------------------------------------------------------
 Center     Atomic      Atomic             Coordinates (Angstroms)
 Number     Number       Type             X           Y           Z
 ---------------------------------------------------------------------
      1          6           0       -2.515503   -0.294602    0.000086
      2          1           0       -3.397306    0.347494   -0.000014
      3          1           0       -2.572600   -0.937202   -0.880614
      4          1           0       -2.572400   -0.937102    0.880786
      5          6           0       -1.227407    0.527004   -0.000114
      6          1           0       -1.216910    1.184504    0.874386
      7          1           0       -1.216810    1.184304   -0.874714
      8          6           0        0.032197   -0.339990   -0.000014
      9          1           0        0.035700   -0.993390   -0.876514
     10          1           0        0.035600   -0.993490    0.876486
     11          6           0        1.311493    0.476316    0.000086
     12          1           0        1.344190    1.121916    0.885686
     13          1           0        1.344190    1.122116   -0.885514
     14          8           0        2.421697   -0.424279   -0.000114
     15          1           0        3.238095    0.082724    0.000686
 ---------------------------------------------------------------------
 Rotational constants (GHZ):          18.8802290           1.9694657           1.8655146
 Leave Link  202 at Wed Dec 20 22:43:15 2017, MaxMem=  3211264000 cpu:               0.0 elap:               0.0
 (Enter /hpc2n/eb/software/Core/gaussian/16.A.03-AVX2/g16/l301.exe)
 General basis read from cards:  (5D, 7F)
 Centers:       2      3      4      6      7      9     10     12     13     15
 S 3 1.00
     Exponent=  3.3870000000D+01 Coefficients=  6.0680000000D-03
     Exponent=  5.0950000000D+00 Coefficients=  4.5308000000D-02
     Exponent=  1.1590000000D+00 Coefficients=  2.0282200000D-01
 S 1 1.00
     Exponent=  3.2580000000D-01 Coefficients=  1.0000000000D+00
 S 1 1.00
     Exponent=  1.0270000000D-01 Coefficients=  1.0000000000D+00
 S 1 1.00
     Exponent=  2.5260000000D-02 Coefficients=  1.0000000000D+00
 P 1 1.00
     Exponent=  1.4070000000D+00 Coefficients=  1.0000000000D+00
 P 1 1.00
     Exponent=  3.8800000000D-01 Coefficients=  1.0000000000D+00
 P 1 1.00
     Exponent=  1.0200000000D-01 Coefficients=  1.0000000000D+00
 D 1 1.00
     Exponent=  1.0570000000D+00 Coefficients=  1.0000000000D+00
 D 1 1.00
     Exponent=  2.4700000000D-01 Coefficients=  1.0000000000D+00
 ****
 Centers:       1      5      8     11
 S 8 1.00
     Exponent=  8.2360000000D+03 Coefficients=  5.3100000000D-04
     Exponent=  1.2350000000D+03 Coefficients=  4.1080000000D-03
     Exponent=  2.8080000000D+02 Coefficients=  2.1087000000D-02
     Exponent=  7.9270000000D+01 Coefficients=  8.1853000000D-02
     Exponent=  2.5590000000D+01 Coefficients=  2.3481700000D-01
     Exponent=  8.9970000000D+00 Coefficients=  4.3440100000D-01
     Exponent=  3.3190000000D+00 Coefficients=  3.4612900000D-01
     Exponent=  3.6430000000D-01 Coefficients= -8.9830000000D-03
 S 8 1.00
     Exponent=  8.2360000000D+03 Coefficients= -1.1300000000D-04
     Exponent=  1.2350000000D+03 Coefficients= -8.7800000000D-04
     Exponent=  2.8080000000D+02 Coefficients= -4.5400000000D-03
     Exponent=  7.9270000000D+01 Coefficients= -1.8133000000D-02
     Exponent=  2.5590000000D+01 Coefficients= -5.5760000000D-02
     Exponent=  8.9970000000D+00 Coefficients= -1.2689500000D-01
     Exponent=  3.3190000000D+00 Coefficients= -1.7035200000D-01
     Exponent=  3.6430000000D-01 Coefficients=  5.9868400000D-01
 S 1 1.00
     Exponent=  9.0590000000D-01 Coefficients=  1.0000000000D+00
 S 1 1.00
     Exponent=  1.2850000000D-01 Coefficients=  1.0000000000D+00
 S 1 1.00
     Exponent=  4.4020000000D-02 Coefficients=  1.0000000000D+00
 P 3 1.00
     Exponent=  1.8710000000D+01 Coefficients=  1.4031000000D-02
     Exponent=  4.1330000000D+00 Coefficients=  8.6866000000D-02
     Exponent=  1.2000000000D+00 Coefficients=  2.9021600000D-01
 P 1 1.00
     Exponent=  3.8270000000D-01 Coefficients=  1.0000000000D+00
 P 1 1.00
     Exponent=  1.2090000000D-01 Coefficients=  1.0000000000D+00
 P 1 1.00
     Exponent=  3.5690000000D-02 Coefficients=  1.0000000000D+00
 D 1 1.00
     Exponent=  1.0970000000D+00 Coefficients=  1.0000000000D+00
 D 1 1.00
     Exponent=  3.1800000000D-01 Coefficients=  1.0000000000D+00
 D 1 1.00
     Exponent=  1.0000000000D-01 Coefficients=  1.0000000000D+00
 F 1 1.00
     Exponent=  7.6100000000D-01 Coefficients=  1.0000000000D+00
 F 1 1.00
     Exponent=  2.6800000000D-01 Coefficients=  1.0000000000D+00
 ****
 Centers:      14
 S 8 1.00
     Exponent=  1.5330000000D+04 Coefficients=  5.0800000000D-04
     Exponent=  2.2990000000D+03 Coefficients=  3.9290000000D-03
     Exponent=  5.2240000000D+02 Coefficients=  2.0243000000D-02
     Exponent=  1.4730000000D+02 Coefficients=  7.9181000000D-02
     Exponent=  4.7550000000D+01 Coefficients=  2.3068700000D-01
     Exponent=  1.6760000000D+01 Coefficients=  4.3311800000D-01
     Exponent=  6.2070000000D+00 Coefficients=  3.5026000000D-01
     Exponent=  6.8820000000D-01 Coefficients= -8.1540000000D-03
 S 8 1.00
     Exponent=  1.5330000000D+04 Coefficients= -1.1500000000D-04
     Exponent=  2.2990000000D+03 Coefficients= -8.9500000000D-04
     Exponent=  5.2240000000D+02 Coefficients= -4.6360000000D-03
     Exponent=  1.4730000000D+02 Coefficients= -1.8724000000D-02
     Exponent=  4.7550000000D+01 Coefficients= -5.8463000000D-02
     Exponent=  1.6760000000D+01 Coefficients= -1.3646300000D-01
     Exponent=  6.2070000000D+00 Coefficients= -1.7574000000D-01
     Exponent=  6.8820000000D-01 Coefficients=  6.0341800000D-01
 S 1 1.00
     Exponent=  1.7520000000D+00 Coefficients=  1.0000000000D+00
 S 1 1.00
     Exponent=  2.3840000000D-01 Coefficients=  1.0000000000D+00
 S 1 1.00
     Exponent=  7.3760000000D-02 Coefficients=  1.0000000000D+00
 P 3 1.00
     Exponent=  3.4460000000D+01 Coefficients=  1.5928000000D-02
     Exponent=  7.7490000000D+00 Coefficients=  9.9740000000D-02
     Exponent=  2.2800000000D+00 Coefficients=  3.1049200000D-01
 P 1 1.00
     Exponent=  7.1560000000D-01 Coefficients=  1.0000000000D+00
 P 1 1.00
     Exponent=  2.1400000000D-01 Coefficients=  1.0000000000D+00
 P 1 1.00
     Exponent=  5.9740000000D-02 Coefficients=  1.0000000000D+00
 D 1 1.00
     Exponent=  2.3140000000D+00 Coefficients=  1.0000000000D+00
 D 1 1.00
     Exponent=  6.4500000000D-01 Coefficients=  1.0000000000D+00
 D 1 1.00
     Exponent=  2.1400000000D-01 Coefficients=  1.0000000000D+00
 F 1 1.00
     Exponent=  1.4280000000D+00 Coefficients=  1.0000000000D+00
 F 1 1.00
     Exponent=  5.0000000000D-01 Coefficients=  1.0000000000D+00
 ****
 Ernie: Thresh=  0.10000D-02 Tol=  0.10000D-05 Strict=F.
 Ernie:  15 primitive shells out of 260 were deleted.
 There are   525 symmetry adapted cartesian basis functions of A   symmetry.
 There are   460 symmetry adapted basis functions of A   symmetry.
   460 basis functions,   630 primitive gaussians,   525 cartesian basis functions
    21 alpha electrons       21 beta electrons
       nuclear repulsion energy       184.8396850847 Hartrees.
 IExCor=  402 DFT=T Ex+Corr=B3LYP ExCW=0 ScaHFX=  0.200000
 ScaDFX=  0.800000  0.720000  1.000000  0.810000 ScalE2=  1.000000  1.000000
 IRadAn=      7 IRanWt=     -1 IRanGd=            0 ICorTp=0 IEmpDi=  4
 NAtoms=   15 NActive=   15 NUniq=   15 SFac= 1.00D+00 NAtFMM=   60 NAOKFM=F Big=F
 Integral buffers will be    131072 words long.
 Raffenetti 2 integral format.
 Two-electron integral symmetry is turned on.
 Leave Link  301 at Wed Dec 20 22:43:16 2017, MaxMem=  3211264000 cpu:               1.1 elap:               1.1
 (Enter /hpc2n/eb/software/Core/gaussian/16.A.03-AVX2/g16/l302.exe)
 NPDir=0 NMtPBC=     1 NCelOv=     1 NCel=       1 NClECP=     1 NCelD=      1
         NCelK=      1 NCelE2=     1 NClLst=     1 CellRange=     0.0.
 One-electron integrals computed using PRISM.
 One-electron integral symmetry used in STVInt
 NBasis=   460 RedAO= T EigKep=  7.94D-06  NBF=   460
 NBsUse=   460 1.00D-06 EigRej= -1.00D+00 NBFU=   460
 Precomputing XC quadrature grid using
 IXCGrd= 4 IRadAn=           7 IRanWt=          -1 IRanGd=           0 AccXCQ= 0.00D+00.
 Generated NRdTot=       0 NPtTot=           0 NUsed=           0 NTot=          32
 NSgBfM=   525   525   525   525   525 MxSgAt=    15 MxSgA2=    15.
 Leave Link  302 at Wed Dec 20 22:43:18 2017, MaxMem=  3211264000 cpu:               1.3 elap:               1.3
 (Enter /hpc2n/eb/software/Core/gaussian/16.A.03-AVX2/g16/l303.exe)
 DipDrv:  MaxL=1.
 Leave Link  303 at Wed Dec 20 22:43:18 2017, MaxMem=  3211264000 cpu:               0.1 elap:               0.1
 (Enter /hpc2n/eb/software/Core/gaussian/16.A.03-AVX2/g16/l401.exe)
 ExpMin= 2.53D-02 ExpMax= 1.53D+04 ExpMxC= 5.22D+02 IAcc=3 IRadAn=         7 AccDes= 0.00D+00
 Harris functional with IExCor=  402 and IRadAn=       7 diagonalized for initial guess.
 HarFok:  IExCor=  402 AccDes= 0.00D+00 IRadAn=         7 IDoV= 1 UseB2=F ITyADJ=14
 ICtDFT=  3500011 ScaDFX=  1.000000  1.000000  1.000000  1.000000
 FoFCou: FMM=F IPFlag=           0 FMFlag=      100000 FMFlg1=           0
         NFxFlg=           0 DoJE=T BraDBF=F KetDBF=T FulRan=T
         wScrn=  0.000000 ICntrl=       500 IOpCl=  0 I1Cent=   200000004 NGrid=           0
         NMat0=    1 NMatS0=      1 NMatT0=    0 NMatD0=    1 NMtDS0=    0 NMtDT0=    0
 Petite list used in FoFCou.
 Harris En= -233.836800524694    
 JPrj=0 DoOrth=F DoCkMO=F.
 Leave Link  401 at Wed Dec 20 22:43:43 2017, MaxMem=  3211264000 cpu:              25.5 elap:              25.5
 (Enter /hpc2n/eb/software/Core/gaussian/16.A.03-AVX2/g16/l502.exe)
 Integral symmetry usage will be decided dynamically.
 Closed shell SCF:
 Using DIIS extrapolation, IDIIS=  1040.
 NGot=  3211264000 LenX=  3210705193 LenY=  3210429043
 Requested convergence on RMS density matrix=1.00D-08 within 128 cycles.
 Requested convergence on MAX density matrix=1.00D-06.
 Requested convergence on             energy=1.00D-06.
 No special actions if energy rises.
 Fock matrices will be formed incrementally for  20 cycles.

 Cycle   1  Pass 1  IDiag  1:
 FoFJK:  IHMeth= 1 ICntrl=       0 DoSepK=F KAlg= 0 I1Cent=           0 FoldK=F
 IRaf= 980000000 NMat=       1 IRICut=       1 DoRegI=T DoRafI=F ISym2E= 0 IDoP0=0 IntGTp=1.
 FoFCou: FMM=F IPFlag=           0 FMFlag=      100000 FMFlg1=           0
         NFxFlg=           0 DoJE=F BraDBF=F KetDBF=F FulRan=T
         wScrn=  0.000000 ICntrl=         0 IOpCl=  0 I1Cent=           0 NGrid=           0
         NMat0=    1 NMatS0=      1 NMatT0=    0 NMatD0=    1 NMtDS0=    0 NMtDT0=    0
 Symmetry not used in FoFCou.
 E= -233.537496022388    
 DIIS: error= 2.79D-02 at cycle   1 NSaved=   1.
 NSaved= 1 IEnMin= 1 EnMin= -233.537496022388     IErMin= 1 ErrMin= 2.79D-02
 ErrMax= 2.79D-02  0.00D+00 EMaxC= 1.00D-01 BMatC= 2.50D-01 BMatP= 2.50D-01
 IDIUse=3 WtCom= 7.21D-01 WtEn= 2.79D-01
 Coeff-Com:  0.100D+01
 Coeff-En:   0.100D+01
 Coeff:      0.100D+01
 Gap=     0.174 Goal=   None    Shift=    0.000
 GapD=    0.174 DampG=1.000 DampE=0.500 DampFc=0.5000 IDamp=-1.
 Damping current iteration by 5.00D-01
 RMSDP=1.65D-03 MaxDP=6.78D-02              OVMax= 2.09D-01

 Cycle   2  Pass 1  IDiag  1:
 RMSU=  8.01D-04    CP:  9.69D-01
 E= -233.620394370032     Delta-E=       -0.082898347644 Rises=F Damp=T
 DIIS: error= 5.32D-03 at cycle   2 NSaved=   2.
 NSaved= 2 IEnMin= 2 EnMin= -233.620394370032     IErMin= 2 ErrMin= 5.32D-03
 ErrMax= 5.32D-03  0.00D+00 EMaxC= 1.00D-01 BMatC= 1.87D-02 BMatP= 2.50D-01
 IDIUse=3 WtCom= 9.47D-01 WtEn= 5.32D-02
 Coeff-Com:  0.140D+00 0.860D+00
 Coeff-En:   0.254D+00 0.746D+00
 Coeff:      0.146D+00 0.854D+00
 Gap=     0.284 Goal=   None    Shift=    0.000
 RMSDP=5.23D-04 MaxDP=2.01D-02 DE=-8.29D-02 OVMax= 1.31D-01

 Cycle   3  Pass 1  IDiag  1:
 RMSU=  5.11D-04    CP:  9.73D-01  8.64D-01
 E= -233.760963506447     Delta-E=       -0.140569136415 Rises=F Damp=F
 DIIS: error= 4.18D-03 at cycle   3 NSaved=   3.
 NSaved= 3 IEnMin= 3 EnMin= -233.760963506447     IErMin= 3 ErrMin= 4.18D-03
 ErrMax= 4.18D-03  0.00D+00 EMaxC= 1.00D-01 BMatC= 7.05D-03 BMatP= 1.87D-02
 IDIUse=3 WtCom= 9.58D-01 WtEn= 4.18D-02
 Coeff-Com:  0.104D-01 0.364D+00 0.626D+00
 Coeff-En:   0.000D+00 0.000D+00 0.100D+01
 Coeff:      0.100D-01 0.349D+00 0.641D+00
 Gap=     0.264 Goal=   None    Shift=    0.000
 RMSDP=1.88D-04 MaxDP=9.69D-03 DE=-1.41D-01 OVMax= 2.31D-02

 Cycle   4  Pass 1  IDiag  1:
 RMSU=  1.65D-04    CP:  9.69D-01  9.43D-01  8.78D-01
 E= -233.764296614003     Delta-E=       -0.003333107556 Rises=F Damp=F
 DIIS: error= 2.11D-03 at cycle   4 NSaved=   4.
 NSaved= 4 IEnMin= 4 EnMin= -233.764296614003     IErMin= 4 ErrMin= 2.11D-03
 ErrMax= 2.11D-03  0.00D+00 EMaxC= 1.00D-01 BMatC= 2.09D-03 BMatP= 7.05D-03
 IDIUse=3 WtCom= 9.79D-01 WtEn= 2.11D-02
 Coeff-Com: -0.144D-01 0.906D-01 0.378D+00 0.546D+00
 Coeff-En:   0.000D+00 0.000D+00 0.245D+00 0.755D+00
 Coeff:     -0.141D-01 0.887D-01 0.375D+00 0.550D+00
 Gap=     0.268 Goal=   None    Shift=    0.000
 RMSDP=6.95D-05 MaxDP=3.15D-03 DE=-3.33D-03 OVMax= 8.48D-03

 Cycle   5  Pass 1  IDiag  1:
 RMSU=  5.42D-05    CP:  9.68D-01  9.37D-01  8.76D-01  7.43D-01
 E= -233.765898131934     Delta-E=       -0.001601517931 Rises=F Damp=F
 DIIS: error= 2.70D-04 at cycle   5 NSaved=   5.
 NSaved= 5 IEnMin= 5 EnMin= -233.765898131934     IErMin= 5 ErrMin= 2.70D-04
 ErrMax= 2.70D-04  0.00D+00 EMaxC= 1.00D-01 BMatC= 3.81D-05 BMatP= 2.09D-03
 IDIUse=3 WtCom= 9.97D-01 WtEn= 2.70D-03
 Coeff-Com: -0.519D-02 0.106D-01 0.914D-01 0.196D+00 0.707D+00
 Coeff-En:   0.000D+00 0.000D+00 0.000D+00 0.000D+00 0.100D+01
 Coeff:     -0.517D-02 0.106D-01 0.911D-01 0.195D+00 0.708D+00
 Gap=     0.267 Goal=   None    Shift=    0.000
 RMSDP=1.26D-05 MaxDP=7.58D-04 DE=-1.60D-03 OVMax= 1.48D-03

 Cycle   6  Pass 1  IDiag  1:
 RMSU=  1.00D-05    CP:  9.68D-01  9.40D-01  8.82D-01  7.57D-01  8.87D-01
 E= -233.765927505937     Delta-E=       -0.000029374003 Rises=F Damp=F
 DIIS: error= 7.65D-05 at cycle   6 NSaved=   6.
 NSaved= 6 IEnMin= 6 EnMin= -233.765927505937     IErMin= 6 ErrMin= 7.65D-05
 ErrMax= 7.65D-05  0.00D+00 EMaxC= 1.00D-01 BMatC= 3.66D-06 BMatP= 3.81D-05
 IDIUse=1 WtCom= 1.00D+00 WtEn= 0.00D+00
 Coeff-Com: -0.186D-02 0.173D-02 0.317D-01 0.770D-01 0.351D+00 0.541D+00
 Coeff:     -0.186D-02 0.173D-02 0.317D-01 0.770D-01 0.351D+00 0.541D+00
 Gap=     0.267 Goal=   None    Shift=    0.000
 RMSDP=2.91D-06 MaxDP=1.65D-04 DE=-2.94D-05 OVMax= 4.24D-04

 Cycle   7  Pass 1  IDiag  1:
 RMSU=  2.55D-06    CP:  9.68D-01  9.40D-01  8.82D-01  7.57D-01  8.97D-01
                    CP:  8.74D-01
 E= -233.765930746812     Delta-E=       -0.000003240875 Rises=F Damp=F
 DIIS: error= 1.38D-05 at cycle   7 NSaved=   7.
 NSaved= 7 IEnMin= 7 EnMin= -233.765930746812     IErMin= 7 ErrMin= 1.38D-05
 ErrMax= 1.38D-05  0.00D+00 EMaxC= 1.00D-01 BMatC= 1.09D-07 BMatP= 3.66D-06
 IDIUse=1 WtCom= 1.00D+00 WtEn= 0.00D+00
 Coeff-Com: -0.550D-04-0.468D-03 0.282D-02 0.911D-02 0.582D-01 0.177D+00
 Coeff-Com:  0.753D+00
 Coeff:     -0.550D-04-0.468D-03 0.282D-02 0.911D-02 0.582D-01 0.177D+00
 Coeff:      0.753D+00
 Gap=     0.267 Goal=   None    Shift=    0.000
 RMSDP=7.23D-07 MaxDP=2.87D-05 DE=-3.24D-06 OVMax= 7.29D-05

 Cycle   8  Pass 1  IDiag  1:
 RMSU=  6.22D-07    CP:  9.68D-01  9.40D-01  8.82D-01  7.58D-01  8.98D-01
                    CP:  8.95D-01  9.30D-01
 E= -233.765930843688     Delta-E=       -0.000000096876 Rises=F Damp=F
 DIIS: error= 4.06D-06 at cycle   8 NSaved=   8.
 NSaved= 8 IEnMin= 8 EnMin= -233.765930843688     IErMin= 8 ErrMin= 4.06D-06
 ErrMax= 4.06D-06  0.00D+00 EMaxC= 1.00D-01 BMatC= 5.33D-09 BMatP= 1.09D-07
 IDIUse=1 WtCom= 1.00D+00 WtEn= 0.00D+00
 Coeff-Com:  0.806D-04-0.248D-03-0.528D-03-0.595D-03 0.203D-02 0.300D-01
 Coeff-Com:  0.252D+00 0.718D+00
 Coeff:      0.806D-04-0.248D-03-0.528D-03-0.595D-03 0.203D-02 0.300D-01
 Coeff:      0.252D+00 0.718D+00
 Gap=     0.267 Goal=   None    Shift=    0.000
 RMSDP=1.70D-07 MaxDP=7.28D-06 DE=-9.69D-08 OVMax= 1.84D-05

 Cycle   9  Pass 1  IDiag  1:
 RMSU=  1.27D-07    CP:  9.68D-01  9.40D-01  8.82D-01  7.58D-01  8.99D-01
                    CP:  8.99D-01  9.44D-01  8.87D-01
 E= -233.765930849295     Delta-E=       -0.000000005607 Rises=F Damp=F
 DIIS: error= 3.30D-07 at cycle   9 NSaved=   9.
 NSaved= 9 IEnMin= 9 EnMin= -233.765930849295     IErMin= 9 ErrMin= 3.30D-07
 ErrMax= 3.30D-07  0.00D+00 EMaxC= 1.00D-01 BMatC= 6.60D-11 BMatP= 5.33D-09
 IDIUse=1 WtCom= 1.00D+00 WtEn= 0.00D+00
 Coeff-Com:  0.846D-05-0.237D-04-0.135D-03-0.185D-03-0.666D-03 0.138D-02
 Coeff-Com:  0.223D-01 0.113D+00 0.864D+00
 Coeff:      0.846D-05-0.237D-04-0.135D-03-0.185D-03-0.666D-03 0.138D-02
 Coeff:      0.223D-01 0.113D+00 0.864D+00
 Gap=     0.267 Goal=   None    Shift=    0.000
 RMSDP=2.72D-08 MaxDP=1.18D-06 DE=-5.61D-09 OVMax= 2.23D-06

 Cycle  10  Pass 1  IDiag  1:
 RMSU=  1.85D-08    CP:  9.68D-01  9.40D-01  8.82D-01  7.58D-01  9.00D-01
                    CP:  9.00D-01  9.47D-01  9.03D-01  1.00D+00
 E= -233.765930849355     Delta-E=       -0.000000000060 Rises=F Damp=F
 DIIS: error= 1.25D-07 at cycle  10 NSaved=  10.
 NSaved=10 IEnMin=10 EnMin= -233.765930849355     IErMin=10 ErrMin= 1.25D-07
 ErrMax= 1.25D-07  0.00D+00 EMaxC= 1.00D-01 BMatC= 8.09D-12 BMatP= 6.60D-11
 IDIUse=1 WtCom= 1.00D+00 WtEn= 0.00D+00
 Coeff-Com:  0.237D-06-0.137D-05-0.373D-04-0.546D-04-0.324D-03-0.420D-03
 Coeff-Com:  0.501D-03 0.187D-01 0.336D+00 0.646D+00
 Coeff:      0.237D-06-0.137D-05-0.373D-04-0.546D-04-0.324D-03-0.420D-03
 Coeff:      0.501D-03 0.187D-01 0.336D+00 0.646D+00
 Gap=     0.267 Goal=   None    Shift=    0.000
 RMSDP=5.25D-09 MaxDP=3.52D-07 DE=-6.00D-11 OVMax= 8.04D-07

 SCF Done:  E(RB3LYP) =  -233.765930849     A.U. after   10 cycles
            NFock= 10  Conv=0.52D-08     -V/T= 2.0066
 KE= 2.322295883522D+02 PE=-9.138278302287D+02 EE= 2.629926259425D+02
 Leave Link  502 at Wed Dec 20 23:06:23 2017, MaxMem=  3211264000 cpu:            1359.7 elap:            1359.6
 (Enter /hpc2n/eb/software/Core/gaussian/16.A.03-AVX2/g16/l601.exe)
 Copying SCF densities to generalized density rwf, IOpCl= 0 IROHF=0.
 SCF density gives NOpUse=  1 NOpAll=  1.

 **********************************************************************

            Population analysis using the SCF density.

 **********************************************************************

 Orbital symmetries:
 BldTbl:  Degeneracy threshold= 1.00D-02
       Occupied  (A) (A) (A) (A) (A) (A) (A) (A) (A) (A) (A) (A)
                 (A) (A) (A) (A) (A) (A) (A) (A) (A)
       Virtual   (A) (A) (A) (A) (A) (A) (A) (A) (A) (A) (A) (A)
                 (A) (A) (A) (A) (A) (A) (A) (A) (A) (A) (A) (A)
                 (A) (A) (A) (A) (A) (A) (A) (A) (A) (A) (A) (A)
                 (A) (A) (A) (A) (A) (A) (A) (A) (A) (A) (A) (A)
                 (A) (A) (A) (A) (A) (A) (A) (A) (A) (A) (A) (A)
                 (A) (A) (A) (A) (A) (A) (A) (A) (A) (A) (A) (A)
                 (A) (A) (A) (A) (A) (A) (A) (A) (A) (A) (A) (A)
                 (A) (A) (A) (A) (A) (A) (A) (A) (A) (A) (A) (A)
                 (A) (A) (A) (A) (A) (A) (A) (A) (A) (A) (A) (A)
                 (A) (A) (A) (A) (A) (A) (A) (A) (A) (A) (A) (A)
                 (A) (A) (A) (A) (A) (A) (A) (A) (A) (A) (A) (A)
                 (A) (A) (A) (A) (A) (A) (A) (A) (A) (A) (A) (A)
                 (A) (A) (A) (A) (A) (A) (A) (A) (A) (A) (A) (A)
                 (A) (A) (A) (A) (A) (A) (A) (A) (A) (A) (A) (A)
                 (A) (A) (A) (A) (A) (A) (A) (A) (A) (A) (A) (A)
                 (A) (A) (A) (A) (A) (A) (A) (A) (A) (A) (A) (A)
                 (A) (A) (A) (A) (A) (A) (A) (A) (A) (A) (A) (A)
                 (A) (A) (A) (A) (A) (A) (A) (A) (A) (A) (A) (A)
                 (A) (A) (A) (A) (A) (A) (A) (A) (A) (A) (A) (A)
                 (A) (A) (A) (A) (A) (A) (A) (A) (A) (A) (A) (A)
                 (A) (A) (A) (A) (A) (A) (A) (A) (A) (A) (A) (A)
                 (A) (A) (A) (A) (A) (A) (A) (A) (A) (A) (A) (A)
                 (A) (A) (A) (A) (A) (A) (A) (A) (A) (A) (A) (A)
                 (A) (A) (A) (A) (A) (A) (A) (A) (A) (A) (A) (A)
                 (A) (A) (A) (A) (A) (A) (A) (A) (A) (A) (A) (A)
                 (A) (A) (A) (A) (A) (A) (A) (A) (A) (A) (A) (A)
                 (A) (A) (A) (A) (A) (A) (A) (A) (A) (A) (A) (A)
                 (A) (A) (A) (A) (A) (A) (A) (A) (A) (A) (A) (A)
                 (A) (A) (A) (A) (A) (A) (A) (A) (A) (A) (A) (A)
                 (A) (A) (A) (A) (A) (A) (A) (A) (A) (A) (A) (A)
                 (A) (A) (A) (A) (A) (A) (A) (A) (A) (A) (A) (A)
                 (A) (A) (A) (A) (A) (A) (A) (A) (A) (A) (A) (A)
                 (A) (A) (A) (A) (A) (A) (A) (A) (A) (A) (A) (A)
                 (A) (A) (A) (A) (A) (A) (A) (A) (A) (A) (A) (A)
                 (A) (A) (A) (A) (A) (A) (A) (A) (A) (A) (A) (A)
                 (A) (A) (A) (A) (A) (A) (A) (A) (A) (A) (A) (A)
                 (A) (A) (A) (A) (A) (A) (A)
 The electronic state is 1-A.
 Alpha  occ. eigenvalues --  -19.12997 -10.21845 -10.17180 -10.16614 -10.16192
 Alpha  occ. eigenvalues --   -1.02136  -0.79817  -0.72337  -0.62943  -0.58427
 Alpha  occ. eigenvalues --   -0.51270  -0.48549  -0.43698  -0.43474  -0.40446
 Alpha  occ. eigenvalues --   -0.37030  -0.36264  -0.34069  -0.33143  -0.32842
 Alpha  occ. eigenvalues --   -0.27994
 Alpha virt. eigenvalues --   -0.01322  -0.00482   0.00662   0.00860   0.01921
 Alpha virt. eigenvalues --    0.03200   0.03215   0.04028   0.05061   0.05258
 Alpha virt. eigenvalues --    0.06233   0.06497   0.07548   0.07775   0.08293
 Alpha virt. eigenvalues --    0.08706   0.08979   0.09819   0.09873   0.10970
 Alpha virt. eigenvalues --    0.11049   0.12129   0.12215   0.13233   0.13651
 Alpha virt. eigenvalues --    0.14802   0.14829   0.15932   0.16039   0.16290
 Alpha virt. eigenvalues --    0.16702   0.16812   0.18351   0.19629   0.19772
 Alpha virt. eigenvalues --    0.20308   0.21307   0.21983   0.23500   0.24065
 Alpha virt. eigenvalues --    0.24534   0.25597   0.25922   0.26572   0.27149
 Alpha virt. eigenvalues --    0.27671   0.28506   0.28764   0.29442   0.30035
 Alpha virt. eigenvalues --    0.30320   0.30519   0.31473   0.32393   0.32556
 Alpha virt. eigenvalues --    0.32849   0.33055   0.33438   0.33674   0.34366
 Alpha virt. eigenvalues --    0.34394   0.35293   0.35913   0.36030   0.36253
 Alpha virt. eigenvalues --    0.36898   0.37855   0.38041   0.39952   0.40431
 Alpha virt. eigenvalues --    0.40665   0.41284   0.43197   0.43708   0.44029
 Alpha virt. eigenvalues --    0.45413   0.45633   0.46285   0.46404   0.46588
 Alpha virt. eigenvalues --    0.49555   0.49569   0.50542   0.50959   0.51582
 Alpha virt. eigenvalues --    0.52727   0.53565   0.54571   0.55281   0.55833
 Alpha virt. eigenvalues --    0.56569   0.56996   0.58472   0.59081   0.63145
 Alpha virt. eigenvalues --    0.63369   0.63553   0.64674   0.65063   0.65379
 Alpha virt. eigenvalues --    0.66654   0.67230   0.68624   0.69634   0.70780
 Alpha virt. eigenvalues --    0.71630   0.71894   0.72058   0.73471   0.74776
 Alpha virt. eigenvalues --    0.76112   0.76272   0.76524   0.78349   0.78883
 Alpha virt. eigenvalues --    0.78997   0.79255   0.79979   0.80926   0.81886
 Alpha virt. eigenvalues --    0.82701   0.82744   0.82942   0.83008   0.84864
 Alpha virt. eigenvalues --    0.85676   0.87330   0.88468   0.90270   0.91477
 Alpha virt. eigenvalues --    0.92024   0.92038   0.92491   0.93641   0.94980
 Alpha virt. eigenvalues --    0.95611   0.96610   0.96636   0.97350   0.99213
 Alpha virt. eigenvalues --    1.00430   1.01569   1.01800   1.02830   1.02996
 Alpha virt. eigenvalues --    1.03870   1.04156   1.05882   1.06445   1.08115
 Alpha virt. eigenvalues --    1.09240   1.09766   1.09873   1.10457   1.11525
 Alpha virt. eigenvalues --    1.11544   1.12550   1.12996   1.13817   1.14609
 Alpha virt. eigenvalues --    1.17631   1.18342   1.18357   1.21196   1.21841
 Alpha virt. eigenvalues --    1.23754   1.24869   1.27135   1.28198   1.28899
 Alpha virt. eigenvalues --    1.30436   1.30623   1.31638   1.33428   1.34718
 Alpha virt. eigenvalues --    1.37214   1.37338   1.38110   1.39169   1.39914
 Alpha virt. eigenvalues --    1.40924   1.41511   1.43325   1.43777   1.45612
 Alpha virt. eigenvalues --    1.45764   1.46831   1.47540   1.48810   1.50242
 Alpha virt. eigenvalues --    1.50662   1.51195   1.51624   1.52312   1.53152
 Alpha virt. eigenvalues --    1.54610   1.54709   1.55257   1.56144   1.56499
 Alpha virt. eigenvalues --    1.56637   1.57425   1.59281   1.59716   1.62416
 Alpha virt. eigenvalues --    1.63473   1.64164   1.64710   1.65185   1.68269
 Alpha virt. eigenvalues --    1.68966   1.71523   1.72785   1.73265   1.74890
 Alpha virt. eigenvalues --    1.76559   1.77357   1.77496   1.78968   1.79784
 Alpha virt. eigenvalues --    1.81917   1.83255   1.84909   1.85790   1.86766
 Alpha virt. eigenvalues --    1.89522   1.90094   1.94396   1.94472   1.95591
 Alpha virt. eigenvalues --    1.99462   2.02295   2.02730   2.03149   2.04704
 Alpha virt. eigenvalues --    2.06405   2.06790   2.09120   2.10546   2.11539
 Alpha virt. eigenvalues --    2.12201   2.14983   2.15446   2.19772   2.21573
 Alpha virt. eigenvalues --    2.22403   2.22532   2.24400   2.26949   2.29893
 Alpha virt. eigenvalues --    2.30557   2.33629   2.34077   2.36007   2.39930
 Alpha virt. eigenvalues --    2.45071   2.48780   2.51153   2.56005   2.57881
 Alpha virt. eigenvalues --    2.64502   2.67831   2.69913   2.70680   2.74887
 Alpha virt. eigenvalues --    2.76229   2.81338   2.86238   2.90089   2.91526
 Alpha virt. eigenvalues --    2.99287   3.05388   3.09682   3.10727   3.12232
 Alpha virt. eigenvalues --    3.12252   3.17113   3.17246   3.19508   3.20532
 Alpha virt. eigenvalues --    3.21605   3.26333   3.27785   3.30257   3.33830
 Alpha virt. eigenvalues --    3.35427   3.36513   3.37085   3.38273   3.39103
 Alpha virt. eigenvalues --    3.41336   3.41969   3.45059   3.45206   3.46364
 Alpha virt. eigenvalues --    3.50423   3.53434   3.53652   3.53739   3.55524
 Alpha virt. eigenvalues --    3.56422   3.56732   3.58542   3.60651   3.62121
 Alpha virt. eigenvalues --    3.63367   3.63966   3.65098   3.66576   3.67755
 Alpha virt. eigenvalues --    3.67767   3.71333   3.71595   3.74279   3.76149
 Alpha virt. eigenvalues --    3.78588   3.81242   3.83498   3.85092   3.87434
 Alpha virt. eigenvalues --    3.88165   3.90360   3.90861   3.94077   3.94452
 Alpha virt. eigenvalues --    3.95785   3.98064   3.99858   4.00654   4.03465
 Alpha virt. eigenvalues --    4.03478   4.04986   4.08230   4.11510   4.13810
 Alpha virt. eigenvalues --    4.17666   4.17741   4.22379   4.23067   4.24140
 Alpha virt. eigenvalues --    4.27534   4.30853   4.32153   4.35029   4.35253
 Alpha virt. eigenvalues --    4.38823   4.39660   4.39918   4.41186   4.41327
 Alpha virt. eigenvalues --    4.43857   4.47104   4.50177   4.50622   4.52392
 Alpha virt. eigenvalues --    4.55068   4.58075   4.59233   4.62735   4.63650
 Alpha virt. eigenvalues --    4.64044   4.66619   4.69331   4.73865   4.75114
 Alpha virt. eigenvalues --    4.75605   4.76127   4.83066   4.83768   4.84234
 Alpha virt. eigenvalues --    4.86995   4.88625   4.89524   4.90707   4.91751
 Alpha virt. eigenvalues --    4.92997   4.94689   5.03127   5.03475   5.05033
 Alpha virt. eigenvalues --    5.06669   5.08328   5.09512   5.11182   5.12391
 Alpha virt. eigenvalues --    5.13166   5.16750   5.18244   5.22470   5.27102
 Alpha virt. eigenvalues --    5.27814   5.30156   5.31617   5.32422   5.33506
 Alpha virt. eigenvalues --    5.36601   5.36961   5.40394   5.46596   5.48379
 Alpha virt. eigenvalues --    5.58478   5.58643   5.62649   5.66070   5.70628
 Alpha virt. eigenvalues --    5.75462   5.76904   5.80373   5.80918   5.83593
 Alpha virt. eigenvalues --    5.88112   5.90311   5.93108   5.98837   6.09196
 Alpha virt. eigenvalues --    6.14081   6.29222   6.32095   6.37378   6.44525
 Alpha virt. eigenvalues --    6.44923   6.46110   6.47005   6.60345   6.65708
 Alpha virt. eigenvalues --    6.83157   6.90014   7.00137   7.04727   7.08118
 Alpha virt. eigenvalues --    7.29799   7.41845   7.72179   8.06921  15.04139
 Alpha virt. eigenvalues --   16.85235  17.10188  17.25916  18.06800
          Condensed to atoms (all electrons):
               1          2          3          4          5          6
     1  C    5.408933   0.462686   0.418421   0.418467   0.118529  -0.025978
     2  H    0.462686   0.432361  -0.010948  -0.010937  -0.041568  -0.002631
     3  H    0.418421  -0.010948   0.414101   0.004608   0.001620  -0.001038
     4  H    0.418467  -0.010937   0.004608   0.414044   0.001619  -0.002302
     5  C    0.118529  -0.041568   0.001620   0.001619   5.043996   0.450540
     6  H   -0.025978  -0.002631  -0.001038  -0.002302   0.450540   0.464567
     7  H   -0.025993  -0.002618  -0.002311  -0.001054   0.450641  -0.018039
     8  C   -0.005264   0.004944  -0.010199  -0.010202   0.162185  -0.011342
     9  H   -0.008523   0.000923  -0.005356  -0.003743  -0.000413   0.008983
    10  H   -0.008502   0.000931  -0.003752  -0.005373  -0.000357  -0.010436
    11  C    0.006109  -0.001790   0.004489   0.004488  -0.023705  -0.012072
    12  H    0.001072  -0.000211   0.000317   0.000579  -0.006606   0.004347
    13  H    0.001079  -0.000208   0.000577   0.000315  -0.006576  -0.008234
    14  O   -0.008719  -0.000066  -0.000879  -0.000877  -0.001222   0.002109
    15  H    0.001057  -0.000015   0.000169   0.000169  -0.001021  -0.000091
               7          8          9         10         11         12
     1  C   -0.025993  -0.005264  -0.008523  -0.008502   0.006109   0.001072
     2  H   -0.002618   0.004944   0.000923   0.000931  -0.001790  -0.000211
     3  H   -0.002311  -0.010199  -0.005356  -0.003752   0.004489   0.000317
     4  H   -0.001054  -0.010202  -0.003743  -0.005373   0.004488   0.000579
     5  C    0.450641   0.162185  -0.000413  -0.000357  -0.023705  -0.006606
     6  H   -0.018039  -0.011342   0.008983  -0.010436  -0.012072   0.004347
     7  H    0.464565  -0.011437  -0.010422   0.008977  -0.012071  -0.008215
     8  C   -0.011437   4.960900   0.425183   0.425027   0.167081   0.004649
     9  H   -0.010422   0.425183   0.495500  -0.043368  -0.020603   0.019623
    10  H    0.008977   0.425027  -0.043368   0.495557  -0.020689  -0.030649
    11  C   -0.012071   0.167081  -0.020603  -0.020689   5.146893   0.432137
    12  H   -0.008215   0.004649   0.019623  -0.030649   0.432137   0.484250
    13  H    0.004348   0.004659  -0.030685   0.019655   0.431863  -0.068284
    14  O    0.002101  -0.024017  -0.005052  -0.005178   0.042765  -0.010349
    15  H   -0.000092   0.004569  -0.002371  -0.002366   0.015499   0.012906
              13         14         15
     1  C    0.001079  -0.008719   0.001057
     2  H   -0.000208  -0.000066  -0.000015
     3  H    0.000577  -0.000879   0.000169
     4  H    0.000315  -0.000877   0.000169
     5  C   -0.006576  -0.001222  -0.001021
     6  H   -0.008234   0.002109  -0.000091
     7  H    0.004348   0.002101  -0.000092
     8  C    0.004659  -0.024017   0.004569
     9  H   -0.030685  -0.005052  -0.002371
    10  H    0.019655  -0.005178  -0.002366
    11  C    0.431863   0.042765   0.015499
    12  H   -0.068284  -0.010349   0.012906
    13  H    0.484473  -0.010113   0.012799
    14  O   -0.010113   8.344090   0.185767
    15  H    0.012799   0.185767   0.676858
 Mulliken charges:
               1
     1  C   -0.753376
     2  H    0.169146
     3  H    0.190181
     4  H    0.190199
     5  C   -0.147663
     6  H    0.161616
     7  H    0.161619
     8  C   -0.086738
     9  H    0.180322
    10  H    0.180524
    11  C   -0.160396
    12  H    0.164431
    13  H    0.164333
    14  O   -0.510360
    15  H    0.096163
 Sum of Mulliken charges =  -0.00000
 Mulliken charges with hydrogens summed into heavy atoms:
               1
     1  C   -0.203851
     5  C    0.175572
     8  C    0.274108
    11  C    0.168368
    14  O   -0.414197
 DipInt: DoE/N= T F RetVal/Mat= T F Init=T NMatP=  1 IDeriv=0 Min/MaxMlt=  0  4
 Entering OneElI...
 OneElI was handed  3210562899 working-precision words.
 Multipole integrals L=0 to 4 MinM= 0 MaxM= 0.
 Requested accuracy = 0.1000D-12
 ShPair: Thresh= 1.00D-13 NBox=     0 BxSize= 0.00D+00 RnKept= 1.25D+01
         NSMCal=                12880 NSMKep=               12607
 PrmmSu-InSpLW:  IPartL=    0 NPrtUS=    1 NPrtUL=    1 DoSpLW=F IThBeg=    0 IThEnd=    0 NThAct=    1.
 PrsmSu:  NPrtUS=   1 ThrOK=F IAlg=1 NPAlg=1 LenDen=           0 ISkipM=0 DoSpLW=F IThBeg=    0 IThEnd=    0.
 Prism:   IPart=     0 DynPar=F LinDyn=F Incr=         126.
 PRISM was handed  3209754817 working-precision words and 12607 shell-pairs
 IPart=  0 NShTot=       12607 NBatch=          94 AvBLen=       134.1
 PrsmSu-ThDecC:  IPartSL=    0    0 NPrtUSL=    1    1 IThBeg=    0 IThEnd=    0 CPU=   -1 GPU=   -1 NThAct=    1.
 PrSmSu:  NxtVal=            127.
 Electronic moments (au):
        -42.00000000         -0.02072149          0.61226371          0.00055656
       -545.02162865        -78.97607308        -47.06434378          2.98317977
          0.00221664          0.00062114        163.16533955        -22.12094707
          0.00066204         22.04323183        160.43773495         -0.01135654
         28.28244599         -4.23334601          0.00241723         -0.01554200
     -12998.24239419       -452.33749796       -232.26452084         15.14965588
          0.07722450        -35.40196504          0.00824972         -0.00215728
          0.01121201       -870.41815364       -552.76409167       -161.79307060
         -0.02272112          0.00296081        -45.42776010
 Electronic spatial extent (au):  <R**2>=            671.0620
 DipInt: DoE/N= F T RetVal/Mat= T F Init=T NMatP=  1 IDeriv=0 Min/MaxMlt=  0  4
 Nuclear    moments (au):
         42.00000000          0.00000000         -0.00000000          0.00000000
        521.69384687         53.07844838         22.09067997          0.00000002
          0.00165618         -0.00046417       -118.08976744         20.98681248
         -0.00011821        -19.74626706       -144.27713111          0.03392252
        -24.89319358          3.99178912         -0.00200736          0.01735028
      11329.53852448        150.06003847         61.00545019         35.74795235
          0.08029928         31.22949750         -0.00461791          0.00552778
         -0.00960193        489.55892954        195.96894781         89.25955323
          0.02637346         -0.00386089         49.05235690
 Total      moments (au):
         -0.00000000         -0.02072149          0.61226371          0.00055656
        -23.32778179        -25.89762470        -24.97366380          2.98317980
          0.00387282          0.00015696         45.07557211         -1.13413459
          0.00054383          2.29696478         16.16060384          0.02256598
          3.38925240         -0.24155688          0.00040986          0.00180828
      -1668.70386971       -302.27745949       -171.25907065         50.89760824
          0.15752378         -4.17246754          0.00363181          0.00337050
          0.00161008       -380.85922410       -356.79514386        -72.53351736
          0.00365234         -0.00090007          3.62459680
 Traceless Quadrup. (au):
          1.40524164         -1.16460127         -0.24064037          2.98317980
          0.00387282          0.00015696
 Charge=             -0.0000 electrons
 Dipole moment (field-independent basis, Debye):
    X=             -0.0527    Y=              1.5562    Z=              0.0014  Tot=              1.5571
 Quadrupole moment (field-independent basis, Debye-Ang):
   XX=            -31.3767   YY=            -34.8332   ZZ=            -33.5904
   XY=              4.0125   XZ=              0.0052   YZ=              0.0002
 Traceless Quadrupole moment (field-independent basis, Debye-Ang):
   XX=              1.8901   YY=             -1.5664   ZZ=             -0.3237
   XY=              4.0125   XZ=              0.0052   YZ=              0.0002
 Octapole moment (field-independent basis, Debye-Ang**2):
  XXX=             32.0831  YYY=             -0.8072  ZZZ=              0.0004  XYY=              1.6349
  XXY=             11.5025  XXZ=              0.0161  XZZ=              2.4123  YZZ=             -0.1719
  YYZ=              0.0003  XYZ=              0.0013
 Hexadecapole moment (field-independent basis, Debye-Ang**3):
 XXXX=           -628.5139 YYYY=           -113.8522 ZZZZ=            -64.5044 XXXY=             19.1705
 XXXZ=              0.0593 YYYX=             -1.5716 YYYZ=              0.0014 ZZZX=              0.0013
 ZZZY=              0.0006 XXYY=           -143.4498 XXZZ=           -134.3862 YYZZ=            -27.3196
 XXYZ=              0.0014 YYXZ=             -0.0003 ZZXY=              1.3652
 N-N= 1.848396850847D+02 E-N=-9.138278275691D+02  KE= 2.322295883522D+02
 SetAtRh:  ITypeU=  23 NETotI=      -1 ICharg=  0 NETot=      42.
 StAtR1:  I=    1 I1=    1 IA=  6 C=   6.0 OKShel=TTT
                                                  SSP
                                                  222
 StAtR1:  I=    2 I1=    2 IA=  1 C=   1.0 OKShel=T
                                                  S
                                                  1
 StAtR1:  I=    3 I1=    3 IA=  1 C=   1.0 OKShel=T
                                                  S
                                                  1
 StAtR1:  I=    4 I1=    4 IA=  1 C=   1.0 OKShel=T
                                                  S
                                                  1
 StAtR1:  I=    5 I1=    5 IA=  6 C=   6.0 OKShel=TTT
                                                  SSP
                                                  222
 StAtR1:  I=    6 I1=    6 IA=  1 C=   1.0 OKShel=T
                                                  S
                                                  1
 StAtR1:  I=    7 I1=    7 IA=  1 C=   1.0 OKShel=T
                                                  S
                                                  1
 StAtR1:  I=    8 I1=    8 IA=  6 C=   6.0 OKShel=TTT
                                                  SSP
                                                  222
 StAtR1:  I=    9 I1=    9 IA=  1 C=   1.0 OKShel=T
                                                  S
                                                  1
 StAtR1:  I=   10 I1=   10 IA=  1 C=   1.0 OKShel=T
                                                  S
                                                  1
 StAtR1:  I=   11 I1=   11 IA=  6 C=   6.0 OKShel=TTT
                                                  SSP
                                                  222
 StAtR1:  I=   12 I1=   12 IA=  1 C=   1.0 OKShel=T
                                                  S
                                                  1
 StAtR1:  I=   13 I1=   13 IA=  1 C=   1.0 OKShel=T
                                                  S
                                                  1
 StAtR1:  I=   14 I1=   14 IA=  8 C=   8.0 OKShel=TTT
                                                  SSP
                                                  224
 StAtR1:  I=   15 I1=   15 IA=  1 C=   1.0 OKShel=T
                                                  S
                                                  1
          I=    1 IA=  6 I1=    1 NAtG=23 NE=   6.000 C=   6.000 Err= 1.75D-11
          I=    2 IA=  1 I1=    2 NAtG=20 NE=   1.000 C=   1.000 Err= 2.80D-12
          I=    3 IA=  1 I1=    3 NAtG=20 NE=   1.000 C=   1.000 Err= 2.80D-12
          I=    4 IA=  1 I1=    4 NAtG=20 NE=   1.000 C=   1.000 Err= 2.80D-12
          I=    5 IA=  6 I1=    5 NAtG=23 NE=   6.000 C=   6.000 Err= 1.75D-11
          I=    6 IA=  1 I1=    6 NAtG=20 NE=   1.000 C=   1.000 Err= 2.80D-12
          I=    7 IA=  1 I1=    7 NAtG=20 NE=   1.000 C=   1.000 Err= 2.80D-12
          I=    8 IA=  6 I1=    8 NAtG=23 NE=   6.000 C=   6.000 Err= 1.75D-11
          I=    9 IA=  1 I1=    9 NAtG=20 NE=   1.000 C=   1.000 Err= 2.80D-12
          I=   10 IA=  1 I1=   10 NAtG=20 NE=   1.000 C=   1.000 Err= 2.80D-12
          I=   11 IA=  6 I1=   11 NAtG=23 NE=   6.000 C=   6.000 Err= 1.75D-11
          I=   12 IA=  1 I1=   12 NAtG=20 NE=   1.000 C=   1.000 Err= 2.80D-12
          I=   13 IA=  1 I1=   13 NAtG=20 NE=   1.000 C=   1.000 Err= 2.80D-12
          I=   14 IA=  8 I1=   14 NAtG=23 NE=   8.000 C=   8.000 Err=-3.68D-11
          I=   15 IA=  1 I1=   15 NAtG=20 NE=   1.000 C=   1.000 Err= 2.80D-12
 Pruned ( 225, 974) grid will be used in numerical quadrature.
 IPart=  0 IRanGd=          0 ScrnBf=T ScrnGd=T RCrit=4.00D+00 DoMicB=T.
 CutRad = 1000.00    CtRdIn =    0.00    XCrit =  15.00   ICut = 0
 Pruned ( 150, 974) grid will be used in numerical quadrature.
 IPart=  0 Atom number   1 atomic number  6 has       63800 grid points.
 IPart=  0 Atom   1 batch    1 overlaps   15 atoms,   136 shells and    15 DB shells.   NGrid=      8342
 Symmetry reduced   194 angular points to   194 for atom    1.
 IPart=  0 Atom   1 batch    2 overlaps   15 atoms,   137 shells and    15 DB shells.   NGrid=      5738
 Symmetry reduced   302 angular points to   302 for atom    1.
 IPart=  0 Atom   1 batch    3 overlaps   15 atoms,   140 shells and    15 DB shells.   NGrid=      6490
 Symmetry reduced   590 angular points to   590 for atom    1.
 IPart=  0 Atom   1 batch    4 overlaps   15 atoms,   141 shells and    15 DB shells.   NGrid=      1948
 Symmetry reduced   974 angular points to   974 for atom    1.
 IPart=  0 Atom   1 batch    5 overlaps   15 atoms,   142 shells and    15 DB shells.   NGrid=      1948
 IPart=  0 Atom   1 batch    6 overlaps   15 atoms,   145 shells and    15 DB shells.   NGrid=      1948
 IPart=  0 Atom   1 batch    7 overlaps   15 atoms,   145 shells and    15 DB shells.   NGrid=      1948
 IPart=  0 Atom   1 batch    8 overlaps   15 atoms,   146 shells and    15 DB shells.   NGrid=      1948
 IPart=  0 Atom   1 batch    9 overlaps   15 atoms,   147 shells and    15 DB shells.   NGrid=      1948
 IPart=  0 Atom   1 batch   10 overlaps   15 atoms,   149 shells and    15 DB shells.   NGrid=      1948
 IPart=  0 Atom   1 batch   11 overlaps   15 atoms,   151 shells and    15 DB shells.   NGrid=      1948
 IPart=  0 Atom   1 batch   12 overlaps   15 atoms,   151 shells and    15 DB shells.   NGrid=      1948
 IPart=  0 Atom   1 batch   13 overlaps   15 atoms,   151 shells and    15 DB shells.   NGrid=      1948
 IPart=  0 Atom   1 batch   14 overlaps   15 atoms,   151 shells and    15 DB shells.   NGrid=      1948
 IPart=  0 Atom   1 batch   15 overlaps   15 atoms,   152 shells and    15 DB shells.   NGrid=      1948
 IPart=  0 Atom   1 batch   16 overlaps   15 atoms,   152 shells and    15 DB shells.   NGrid=       974
 IPart=  0 Atom   1 batch   17 overlaps   15 atoms,   154 shells and    15 DB shells.   NGrid=      1180
 Symmetry reduced   590 angular points to   590 for atom    1.
 IPart=  0 Atom   1 batch   18 overlaps   15 atoms,   157 shells and    15 DB shells.   NGrid=      1180
 IPart=  0 Atom   1 batch   19 overlaps   15 atoms,   158 shells and    15 DB shells.   NGrid=      1180
 IPart=  0 Atom   1 batch   20 overlaps   15 atoms,   157 shells and    15 DB shells.   NGrid=      1180
 IPart=  0 Atom   1 batch   21 overlaps   15 atoms,   155 shells and    15 DB shells.   NGrid=      1180
 IPart=  0 Atom   1 batch   22 overlaps   15 atoms,   148 shells and    15 DB shells.   NGrid=      1180
 IPart=  0 Atom   1 batch   23 overlaps   15 atoms,   142 shells and    15 DB shells.   NGrid=      1180
 IPart=  0 Atom   1 batch   24 overlaps   15 atoms,   129 shells and    15 DB shells.   NGrid=      1180
 IPart=  0 Atom   1 batch   25 overlaps   15 atoms,   117 shells and    15 DB shells.   NGrid=      1180
 IPart=  0 Atom   1 batch   26 overlaps   15 atoms,    95 shells and    15 DB shells.   NGrid=      1180
 IPart=  0 Atom   1 batch   27 overlaps   15 atoms,    73 shells and    15 DB shells.   NGrid=      1180
 IPart=  0 Atom   1 batch   28 overlaps   15 atoms,    57 shells and    11 DB shells.   NGrid=      1180
 IPart=  0 Atom   1 batch   29 overlaps   15 atoms,    33 shells and     4 DB shells.   NGrid=      1180
 IPart=  0 Atom   1 batch   30 overlaps   15 atoms,    21 shells and     0 DB shells.   NGrid=      1180
 IPart=  0 Atom   1 batch   31 overlaps   15 atoms,    12 shells and     0 DB shells.   NGrid=      1180
 IPart=  0 Atom   1 batch   32 overlaps   15 atoms,     3 shells and     0 DB shells.   NGrid=      1180
 Pruned ( 150, 974) grid will be used in numerical quadrature.
 IPart=  0 Atom number   2 atomic number  1 has       64992 grid points.
 IPart=  0 Atom   2 batch    1 overlaps   15 atoms,   125 shells and    15 DB shells.   NGrid=      9700
 Symmetry reduced   194 angular points to   194 for atom    2.
 IPart=  0 Atom   2 batch    2 overlaps   15 atoms,   126 shells and    15 DB shells.   NGrid=      3624
 Symmetry reduced   302 angular points to   302 for atom    2.
 IPart=  0 Atom   2 batch    3 overlaps   15 atoms,   130 shells and    15 DB shells.   NGrid=      7670
 Symmetry reduced   590 angular points to   590 for atom    2.
 IPart=  0 Atom   2 batch    4 overlaps   15 atoms,   130 shells and    15 DB shells.   NGrid=      1948
 Symmetry reduced   974 angular points to   974 for atom    2.
 IPart=  0 Atom   2 batch    5 overlaps   15 atoms,   131 shells and    15 DB shells.   NGrid=      1948
 IPart=  0 Atom   2 batch    6 overlaps   15 atoms,   133 shells and    15 DB shells.   NGrid=      1948
 IPart=  0 Atom   2 batch    7 overlaps   15 atoms,   133 shells and    15 DB shells.   NGrid=      1948
 IPart=  0 Atom   2 batch    8 overlaps   15 atoms,   135 shells and    15 DB shells.   NGrid=      1948
 IPart=  0 Atom   2 batch    9 overlaps   15 atoms,   136 shells and    15 DB shells.   NGrid=      1948
 IPart=  0 Atom   2 batch   10 overlaps   15 atoms,   137 shells and    15 DB shells.   NGrid=      1948
 IPart=  0 Atom   2 batch   11 overlaps   15 atoms,   137 shells and    15 DB shells.   NGrid=      1948
 IPart=  0 Atom   2 batch   12 overlaps   15 atoms,   140 shells and    15 DB shells.   NGrid=      1948
 IPart=  0 Atom   2 batch   13 overlaps   15 atoms,   142 shells and    15 DB shells.   NGrid=      1948
 IPart=  0 Atom   2 batch   14 overlaps   15 atoms,   145 shells and    15 DB shells.   NGrid=      1948
 IPart=  0 Atom   2 batch   15 overlaps   15 atoms,   149 shells and    15 DB shells.   NGrid=      1948
 IPart=  0 Atom   2 batch   16 overlaps   15 atoms,   151 shells and    15 DB shells.   NGrid=      1948
 IPart=  0 Atom   2 batch   17 overlaps   15 atoms,   151 shells and    15 DB shells.   NGrid=       974
 IPart=  0 Atom   2 batch   18 overlaps   15 atoms,   151 shells and    15 DB shells.   NGrid=      1180
 Symmetry reduced   590 angular points to   590 for atom    2.
 IPart=  0 Atom   2 batch   19 overlaps   15 atoms,   153 shells and    15 DB shells.   NGrid=      1180
 IPart=  0 Atom   2 batch   20 overlaps   15 atoms,   152 shells and    15 DB shells.   NGrid=      1180
 IPart=  0 Atom   2 batch   21 overlaps   15 atoms,   155 shells and    15 DB shells.   NGrid=      1180
 IPart=  0 Atom   2 batch   22 overlaps   15 atoms,   154 shells and    15 DB shells.   NGrid=      1180
 IPart=  0 Atom   2 batch   23 overlaps   15 atoms,   152 shells and    15 DB shells.   NGrid=      1180
 IPart=  0 Atom   2 batch   24 overlaps   15 atoms,   142 shells and    15 DB shells.   NGrid=      1180
 IPart=  0 Atom   2 batch   25 overlaps   15 atoms,   132 shells and    15 DB shells.   NGrid=      1180
 IPart=  0 Atom   2 batch   26 overlaps   15 atoms,   115 shells and    15 DB shells.   NGrid=      1180
 IPart=  0 Atom   2 batch   27 overlaps   15 atoms,    90 shells and    15 DB shells.   NGrid=      1180
 IPart=  0 Atom   2 batch   28 overlaps   15 atoms,    66 shells and    14 DB shells.   NGrid=      1180
 IPart=  0 Atom   2 batch   29 overlaps   15 atoms,    43 shells and     8 DB shells.   NGrid=      1180
 IPart=  0 Atom   2 batch   30 overlaps   15 atoms,    25 shells and     1 DB shells.   NGrid=      1180
 IPart=  0 Atom   2 batch   31 overlaps   15 atoms,    15 shells and     0 DB shells.   NGrid=      1180
 IPart=  0 Atom   2 batch   32 overlaps   15 atoms,     3 shells and     0 DB shells.   NGrid=      1180
 Pruned ( 150, 974) grid will be used in numerical quadrature.
 IPart=  0 Atom number   3 atomic number  1 has       64992 grid points.
 IPart=  0 Atom   3 batch    1 overlaps   15 atoms,   132 shells and    15 DB shells.   NGrid=      9700
 Symmetry reduced   194 angular points to   194 for atom    3.
 IPart=  0 Atom   3 batch    2 overlaps   15 atoms,   135 shells and    15 DB shells.   NGrid=      3624
 Symmetry reduced   302 angular points to   302 for atom    3.
 IPart=  0 Atom   3 batch    3 overlaps   15 atoms,   137 shells and    15 DB shells.   NGrid=      7670
 Symmetry reduced   590 angular points to   590 for atom    3.
 IPart=  0 Atom   3 batch    4 overlaps   15 atoms,   137 shells and    15 DB shells.   NGrid=      1948
 Symmetry reduced   974 angular points to   974 for atom    3.
 IPart=  0 Atom   3 batch    5 overlaps   15 atoms,   138 shells and    15 DB shells.   NGrid=      1948
 IPart=  0 Atom   3 batch    6 overlaps   15 atoms,   138 shells and    15 DB shells.   NGrid=      1948
 IPart=  0 Atom   3 batch    7 overlaps   15 atoms,   140 shells and    15 DB shells.   NGrid=      1948
 IPart=  0 Atom   3 batch    8 overlaps   15 atoms,   141 shells and    15 DB shells.   NGrid=      1948
 IPart=  0 Atom   3 batch    9 overlaps   15 atoms,   142 shells and    15 DB shells.   NGrid=      1948
 IPart=  0 Atom   3 batch   10 overlaps   15 atoms,   145 shells and    15 DB shells.   NGrid=      1948
 IPart=  0 Atom   3 batch   11 overlaps   15 atoms,   146 shells and    15 DB shells.   NGrid=      1948
 IPart=  0 Atom   3 batch   12 overlaps   15 atoms,   148 shells and    15 DB shells.   NGrid=      1948
 IPart=  0 Atom   3 batch   13 overlaps   15 atoms,   149 shells and    15 DB shells.   NGrid=      1948
 IPart=  0 Atom   3 batch   14 overlaps   15 atoms,   150 shells and    15 DB shells.   NGrid=      1948
 IPart=  0 Atom   3 batch   15 overlaps   15 atoms,   151 shells and    15 DB shells.   NGrid=      1948
 IPart=  0 Atom   3 batch   16 overlaps   15 atoms,   152 shells and    15 DB shells.   NGrid=      1948
 IPart=  0 Atom   3 batch   17 overlaps   15 atoms,   152 shells and    15 DB shells.   NGrid=       974
 IPart=  0 Atom   3 batch   18 overlaps   15 atoms,   155 shells and    15 DB shells.   NGrid=      1180
 Symmetry reduced   590 angular points to   590 for atom    3.
 IPart=  0 Atom   3 batch   19 overlaps   15 atoms,   158 shells and    15 DB shells.   NGrid=      1180
 IPart=  0 Atom   3 batch   20 overlaps   15 atoms,   156 shells and    15 DB shells.   NGrid=      1180
 IPart=  0 Atom   3 batch   21 overlaps   15 atoms,   156 shells and    15 DB shells.   NGrid=      1180
 IPart=  0 Atom   3 batch   22 overlaps   15 atoms,   155 shells and    15 DB shells.   NGrid=      1180
 IPart=  0 Atom   3 batch   23 overlaps   15 atoms,   151 shells and    15 DB shells.   NGrid=      1180
 IPart=  0 Atom   3 batch   24 overlaps   15 atoms,   142 shells and    15 DB shells.   NGrid=      1180
 IPart=  0 Atom   3 batch   25 overlaps   15 atoms,   125 shells and    15 DB shells.   NGrid=      1180
 IPart=  0 Atom   3 batch   26 overlaps   15 atoms,   114 shells and    15 DB shells.   NGrid=      1180
 IPart=  0 Atom   3 batch   27 overlaps   15 atoms,    84 shells and    15 DB shells.   NGrid=      1180
 IPart=  0 Atom   3 batch   28 overlaps   15 atoms,    60 shells and    14 DB shells.   NGrid=      1180
 IPart=  0 Atom   3 batch   29 overlaps   15 atoms,    40 shells and     7 DB shells.   NGrid=      1180
 IPart=  0 Atom   3 batch   30 overlaps   15 atoms,    22 shells and     1 DB shells.   NGrid=      1180
 IPart=  0 Atom   3 batch   31 overlaps   15 atoms,    14 shells and     0 DB shells.   NGrid=      1180
 IPart=  0 Atom   3 batch   32 overlaps   15 atoms,     3 shells and     0 DB shells.   NGrid=      1180
 Pruned ( 150, 974) grid will be used in numerical quadrature.
 IPart=  0 Atom number   4 atomic number  1 has       64992 grid points.
 IPart=  0 Atom   4 batch    1 overlaps   15 atoms,   132 shells and    15 DB shells.   NGrid=      9700
 Symmetry reduced   194 angular points to   194 for atom    4.
 IPart=  0 Atom   4 batch    2 overlaps   15 atoms,   135 shells and    15 DB shells.   NGrid=      3624
 Symmetry reduced   302 angular points to   302 for atom    4.
 IPart=  0 Atom   4 batch    3 overlaps   15 atoms,   137 shells and    15 DB shells.   NGrid=      7670
 Symmetry reduced   590 angular points to   590 for atom    4.
 IPart=  0 Atom   4 batch    4 overlaps   15 atoms,   137 shells and    15 DB shells.   NGrid=      1948
 Symmetry reduced   974 angular points to   974 for atom    4.
 IPart=  0 Atom   4 batch    5 overlaps   15 atoms,   138 shells and    15 DB shells.   NGrid=      1948
 IPart=  0 Atom   4 batch    6 overlaps   15 atoms,   138 shells and    15 DB shells.   NGrid=      1948
 IPart=  0 Atom   4 batch    7 overlaps   15 atoms,   140 shells and    15 DB shells.   NGrid=      1948
 IPart=  0 Atom   4 batch    8 overlaps   15 atoms,   141 shells and    15 DB shells.   NGrid=      1948
 IPart=  0 Atom   4 batch    9 overlaps   15 atoms,   142 shells and    15 DB shells.   NGrid=      1948
 IPart=  0 Atom   4 batch   10 overlaps   15 atoms,   145 shells and    15 DB shells.   NGrid=      1948
 IPart=  0 Atom   4 batch   11 overlaps   15 atoms,   146 shells and    15 DB shells.   NGrid=      1948
 IPart=  0 Atom   4 batch   12 overlaps   15 atoms,   148 shells and    15 DB shells.   NGrid=      1948
 IPart=  0 Atom   4 batch   13 overlaps   15 atoms,   149 shells and    15 DB shells.   NGrid=      1948
 IPart=  0 Atom   4 batch   14 overlaps   15 atoms,   150 shells and    15 DB shells.   NGrid=      1948
 IPart=  0 Atom   4 batch   15 overlaps   15 atoms,   151 shells and    15 DB shells.   NGrid=      1948
 IPart=  0 Atom   4 batch   16 overlaps   15 atoms,   152 shells and    15 DB shells.   NGrid=      1948
 IPart=  0 Atom   4 batch   17 overlaps   15 atoms,   152 shells and    15 DB shells.   NGrid=       974
 IPart=  0 Atom   4 batch   18 overlaps   15 atoms,   155 shells and    15 DB shells.   NGrid=      1180
 Symmetry reduced   590 angular points to   590 for atom    4.
 IPart=  0 Atom   4 batch   19 overlaps   15 atoms,   158 shells and    15 DB shells.   NGrid=      1180
 IPart=  0 Atom   4 batch   20 overlaps   15 atoms,   156 shells and    15 DB shells.   NGrid=      1180
 IPart=  0 Atom   4 batch   21 overlaps   15 atoms,   156 shells and    15 DB shells.   NGrid=      1180
 IPart=  0 Atom   4 batch   22 overlaps   15 atoms,   155 shells and    15 DB shells.   NGrid=      1180
 IPart=  0 Atom   4 batch   23 overlaps   15 atoms,   151 shells and    15 DB shells.   NGrid=      1180
 IPart=  0 Atom   4 batch   24 overlaps   15 atoms,   142 shells and    15 DB shells.   NGrid=      1180
 IPart=  0 Atom   4 batch   25 overlaps   15 atoms,   125 shells and    15 DB shells.   NGrid=      1180
 IPart=  0 Atom   4 batch   26 overlaps   15 atoms,   114 shells and    15 DB shells.   NGrid=      1180
 IPart=  0 Atom   4 batch   27 overlaps   15 atoms,    84 shells and    15 DB shells.   NGrid=      1180
 IPart=  0 Atom   4 batch   28 overlaps   15 atoms,    60 shells and    14 DB shells.   NGrid=      1180
 IPart=  0 Atom   4 batch   29 overlaps   15 atoms,    40 shells and     7 DB shells.   NGrid=      1180
 IPart=  0 Atom   4 batch   30 overlaps   15 atoms,    22 shells and     1 DB shells.   NGrid=      1180
 IPart=  0 Atom   4 batch   31 overlaps   15 atoms,    14 shells and     0 DB shells.   NGrid=      1180
 IPart=  0 Atom   4 batch   32 overlaps   15 atoms,     3 shells and     0 DB shells.   NGrid=      1180
 Pruned ( 150, 974) grid will be used in numerical quadrature.
 IPart=  0 Atom number   5 atomic number  6 has       63210 grid points.
 IPart=  0 Atom   5 batch    1 overlaps   15 atoms,   151 shells and    15 DB shells.   NGrid=      8342
 Symmetry reduced   194 angular points to   194 for atom    5.
 IPart=  0 Atom   5 batch    2 overlaps   15 atoms,   151 shells and    15 DB shells.   NGrid=      5738
 Symmetry reduced   302 angular points to   302 for atom    5.
 IPart=  0 Atom   5 batch    3 overlaps   15 atoms,   151 shells and    15 DB shells.   NGrid=      6490
 Symmetry reduced   590 angular points to   590 for atom    5.
 IPart=  0 Atom   5 batch    4 overlaps   15 atoms,   151 shells and    15 DB shells.   NGrid=      1948
 Symmetry reduced   974 angular points to   974 for atom    5.
 IPart=  0 Atom   5 batch    5 overlaps   15 atoms,   152 shells and    15 DB shells.   NGrid=      1948
 IPart=  0 Atom   5 batch    6 overlaps   15 atoms,   153 shells and    15 DB shells.   NGrid=      1948
 IPart=  0 Atom   5 batch    7 overlaps   15 atoms,   153 shells and    15 DB shells.   NGrid=      1948
 IPart=  0 Atom   5 batch    8 overlaps   15 atoms,   153 shells and    15 DB shells.   NGrid=      1948
 IPart=  0 Atom   5 batch    9 overlaps   15 atoms,   154 shells and    15 DB shells.   NGrid=      1948
 IPart=  0 Atom   5 batch   10 overlaps   15 atoms,   154 shells and    15 DB shells.   NGrid=      1948
 IPart=  0 Atom   5 batch   11 overlaps   15 atoms,   155 shells and    15 DB shells.   NGrid=      1948
 IPart=  0 Atom   5 batch   12 overlaps   15 atoms,   158 shells and    15 DB shells.   NGrid=      1948
 IPart=  0 Atom   5 batch   13 overlaps   15 atoms,   159 shells and    15 DB shells.   NGrid=      1948
 IPart=  0 Atom   5 batch   14 overlaps   15 atoms,   159 shells and    15 DB shells.   NGrid=      1948
 IPart=  0 Atom   5 batch   15 overlaps   15 atoms,   158 shells and    15 DB shells.   NGrid=      1948
 IPart=  0 Atom   5 batch   16 overlaps   15 atoms,   158 shells and    15 DB shells.   NGrid=       974
 IPart=  0 Atom   5 batch   17 overlaps   15 atoms,   159 shells and    15 DB shells.   NGrid=      1180
 Symmetry reduced   590 angular points to   590 for atom    5.
 IPart=  0 Atom   5 batch   18 overlaps   15 atoms,   159 shells and    15 DB shells.   NGrid=      1180
 IPart=  0 Atom   5 batch   19 overlaps   15 atoms,   159 shells and    15 DB shells.   NGrid=      1180
 IPart=  0 Atom   5 batch   20 overlaps   15 atoms,   157 shells and    15 DB shells.   NGrid=      1180
 IPart=  0 Atom   5 batch   21 overlaps   15 atoms,   154 shells and    15 DB shells.   NGrid=      1180
 IPart=  0 Atom   5 batch   22 overlaps   15 atoms,   149 shells and    15 DB shells.   NGrid=      1180
 IPart=  0 Atom   5 batch   23 overlaps   15 atoms,   142 shells and    15 DB shells.   NGrid=      1180
 IPart=  0 Atom   5 batch   24 overlaps   15 atoms,   117 shells and    15 DB shells.   NGrid=      1180
 IPart=  0 Atom   5 batch   25 overlaps   15 atoms,   104 shells and    15 DB shells.   NGrid=      1180
 IPart=  0 Atom   5 batch   26 overlaps   15 atoms,    87 shells and    15 DB shells.   NGrid=      1180
 IPart=  0 Atom   5 batch   27 overlaps   15 atoms,    60 shells and    15 DB shells.   NGrid=      1180
 IPart=  0 Atom   5 batch   28 overlaps   15 atoms,    50 shells and    12 DB shells.   NGrid=      1180
 IPart=  0 Atom   5 batch   29 overlaps   15 atoms,    25 shells and     1 DB shells.   NGrid=      1180
 IPart=  0 Atom   5 batch   30 overlaps   15 atoms,    18 shells and     0 DB shells.   NGrid=      1180
 IPart=  0 Atom   5 batch   31 overlaps   15 atoms,    11 shells and     0 DB shells.   NGrid=      1180
 IPart=  0 Atom   5 batch   32 overlaps   15 atoms,     1 shells and     0 DB shells.   NGrid=       590
 Pruned ( 150, 974) grid will be used in numerical quadrature.
 IPart=  0 Atom number   6 atomic number  1 has       64402 grid points.
 IPart=  0 Atom   6 batch    1 overlaps   15 atoms,   146 shells and    15 DB shells.   NGrid=      9700
 Symmetry reduced   194 angular points to   194 for atom    6.
 IPart=  0 Atom   6 batch    2 overlaps   15 atoms,   149 shells and    15 DB shells.   NGrid=      3624
 Symmetry reduced   302 angular points to   302 for atom    6.
 IPart=  0 Atom   6 batch    3 overlaps   15 atoms,   151 shells and    15 DB shells.   NGrid=      7670
 Symmetry reduced   590 angular points to   590 for atom    6.
 IPart=  0 Atom   6 batch    4 overlaps   15 atoms,   151 shells and    15 DB shells.   NGrid=      1948
 Symmetry reduced   974 angular points to   974 for atom    6.
 IPart=  0 Atom   6 batch    5 overlaps   15 atoms,   151 shells and    15 DB shells.   NGrid=      1948
 IPart=  0 Atom   6 batch    6 overlaps   15 atoms,   151 shells and    15 DB shells.   NGrid=      1948
 IPart=  0 Atom   6 batch    7 overlaps   15 atoms,   151 shells and    15 DB shells.   NGrid=      1948
 IPart=  0 Atom   6 batch    8 overlaps   15 atoms,   151 shells and    15 DB shells.   NGrid=      1948
 IPart=  0 Atom   6 batch    9 overlaps   15 atoms,   152 shells and    15 DB shells.   NGrid=      1948
[...]
 ! D25   D(10,8,11,12)         -62.9997         -DE/DX =    0.0                 !
 ! D26   D(10,8,11,13)         178.489          -DE/DX =    0.0                 !
 ! D27   D(10,8,11,14)          57.7447         -DE/DX =    0.0                 !
 ! D28   D(8,11,14,15)         179.9999         -DE/DX =    0.0                 !
 ! D29   D(12,11,14,15)        -59.4705         -DE/DX =    0.0                 !
 ! D30   D(13,11,14,15)         59.4702         -DE/DX =    0.0                 !
 --------------------------------------------------------------------------------
 GradGradGradGradGradGradGradGradGradGradGradGradGradGradGradGradGradGrad

 Leave Link  103 at Thu Dec 21 05:47:50 2017, MaxMem=  3211264000 cpu:               0.0 elap:               0.0
 (Enter /hpc2n/eb/software/Core/gaussian/16.A.03-AVX2/g16/l9999.exe)

 ----------------------------------------------------------------------

 Electric dipole moment (input orientation):
 (Debye = 10**-18 statcoulomb cm , SI units = C m)
                  (au)            (Debye)         (10**-30 SI)
   Tot        0.612455D+00      0.155670D+01      0.519261D+01
   x         -0.203118D-01     -0.516275D-01     -0.172211D+00
   y          0.612118D+00      0.155585D+01      0.518975D+01
   z          0.000000D+00      0.000000D+00      0.000000D+00

 Dipole polarizability, Alpha (input orientation).
 (esu units = cm**3 , SI units = C**2 m**2 J**-1)
 Alpha(0;0):
               (au)            (10**-24 esu)      (10**-40 SI)
   iso        0.586777D+02      0.869514D+01      0.967464D+01
   aniso      0.163532D+02      0.242329D+01      0.269628D+01
   xx         0.692652D+02      0.102641D+02      0.114203D+02
   yx         0.661267D+00      0.979897D-01      0.109028D+00
   yy         0.555363D+02      0.822963D+01      0.915670D+01
   zx         0.717391D-03      0.106306D-03      0.118282D-03
   zy        -0.929654D-04     -0.137761D-04     -0.153279D-04
   zz         0.512316D+02      0.759173D+01      0.844694D+01

 ----------------------------------------------------------------------

 Dipole orientation:
     6         -4.76694184         -0.15812983         -0.39902081
     1         -6.39092291         -0.21192563          0.86919312
     1         -4.96983384          1.50021291         -1.60932756
     1         -4.85958018         -1.82631753         -1.60925758
     6         -2.28403278         -0.07580691          1.07216953
     1         -2.16871164         -1.72546995          2.31330411
     1         -2.27819677          1.57792116          2.31323708
     6          0.03943808          0.00116711         -0.64327354
     1         -0.04950790          1.65520401         -1.87803715
     1          0.06020087         -1.65517026         -1.87798391
     6          2.50566463          0.08292452          0.81754052
     1          2.66400278         -1.58623377          2.03525933
     1          2.55312402          1.75892454          2.03523220
     8          4.54411906          0.15047606         -0.95360121
     1          6.11715670          0.20260588         -0.04781175

 Electric dipole moment (dipole orientation):
 (Debye = 10**-18 statcoulomb cm , SI units = C m)
                  (au)            (Debye)         (10**-30 SI)
   Tot        0.612455D+00      0.155670D+01      0.519261D+01
   x          0.000000D+00      0.000000D+00      0.000000D+00
   y          0.000000D+00      0.000000D+00      0.000000D+00
   z          0.612455D+00      0.155670D+01      0.519261D+01

 Dipole polarizability, Alpha (dipole orientation).
 (esu units = cm**3 , SI units = C**2 m**2 J**-1)
 Alpha(0;0):
               (au)            (10**-24 esu)      (10**-40 SI)
   iso        0.586777D+02      0.869514D+01      0.967464D+01
   aniso      0.163532D+02      0.242329D+01      0.269628D+01
   xx         0.692742D+02      0.102654D+02      0.114218D+02
   yx         0.597988D+00      0.886127D-01      0.985950D-01
   yy         0.512514D+02      0.759467D+01      0.845021D+01
   zx         0.204633D+00      0.303235D-01      0.337394D-01
   zy         0.684588D-02      0.101445D-02      0.112873D-02
   zz         0.555075D+02      0.822537D+01      0.915196D+01

 ----------------------------------------------------------------------

 Test job not archived.
 1\1\GINC-B-CN0847\Freq\RB3LYP\Gen\C4H10O1\SPOEL\21-Dec-2017\0\\#P Geom
 =AllCheck Guess=TCheck SCRF=Check Test GenChk RB3LYP/ChkBas Freq\\1-bu
 tanol\\0,1\C,-2.5155533023,-0.294742139,-0.0000238646\H,-3.3971825351,
 0.3474821876,-0.0000823858\H,-2.5724719932,-0.9374627256,-0.8806498907
 \H,-2.5725428103,-0.9374028203,0.8806408033\C,-1.2274748949,0.52694885
 76,0.0000004623\H,-1.2172345184,1.1844428033,0.8744988198\H,-1.2171633
 913,1.184384642,-0.8745403168\C,0.0321566637,-0.3395260085,0.000079734
 9\H,0.035822977,-0.9931852874,-0.8762690631\H,0.0357478183,-0.99313450
 74,0.8764673012\C,1.3115889636,0.4763841753,0.0001104568\H,1.344636912
 9,1.1222371864,0.885674705\H,1.3447032931,1.1221996788,-0.8854789839\O
 ,2.4213744463,-0.4245536934,0.0001715471\H,3.2378923707,0.0821276506,0
 .0002006746\\Version=ES64L-G16RevA.03\State=1-A\HF=-233.765931\RMSD=8.
 088e-09\RMSF=3.145e-07\ZeroPoint=0.1363888\Thermal=0.1433163\Dipole=-0
 .0203118,0.6121177,-0.0000088\DipoleDeriv=0.0322248,-0.0245993,-0.0000
 026,0.0043892,0.0980606,0.0000012,-0.0000037,-0.0000001,0.122036,-0.15
 06412,0.066338,-0.0000111,0.1080843,-0.02248,0.0000075,-0.0000127,0.00
 00059,0.0683785,0.0319183,-0.0033706,0.0216122,-0.0480117,-0.0271637,-
 0.0923074,-0.0244812,-0.1113817,-0.0832837,0.0319181,-0.0033809,-0.021
 6028,-0.0480175,-0.0271496,0.0922994,0.0244938,0.1113773,-0.083297,0.1
 157691,-0.0030215,-0.0000021,-0.0329268,0.1139583,0.0000004,-0.0000012
 ,0.0000021,0.1637381,-0.0056073,-0.0191541,-0.0187366,0.0001882,-0.057
 4479,-0.099118,-0.0052743,-0.1287722,-0.0854537,-0.0056095,-0.0191633,
 0.0187444,0.0001805,-0.0574327,0.099116,0.0052808,0.1287685,-0.0854665
 ,-0.0445264,0.0093427,-0.0000077,-0.0741555,0.0667458,-0.0000013,-0.00
 00059,0.000002,0.1418017,0.0129198,-0.0070429,-0.0074224,-0.010314,-0.
 0370033,-0.0849065,0.0001933,-0.1105183,-0.0712492,0.0129188,-0.007052
 4,0.0074298,-0.0103212,-0.0369927,0.0849041,-0.0001854,0.1105164,-0.07
 12605,0.7684217,-0.2417102,0.000021,-0.2367717,0.4357295,-0.0000111,0.
 0000202,-0.000011,0.385498,-0.0315546,0.0129401,0.0020222,0.0377537,-0
 .0830711,-0.0955886,-0.0002011,-0.1441624,-0.1120516,-0.0315541,0.0129
 293,-0.0020172,0.0377465,-0.083061,0.0955908,0.000205,0.1441621,-0.112
 0627,-0.9345066,0.2848977,-0.0000226,0.3405828,-0.4608108,0.0000144,-0
 .0000234,0.0000117,-0.5010956,0.1979091,-0.0579528,-0.0000045,-0.06840
 69,0.1781188,-0.0000009,-0.0000042,-0.0000004,0.3237683\Polar=69.26524
 79,0.6612671,55.5362795,0.0007174,-0.000093,51.2315504\Quadrupole=1.40
 81287,-1.1656207,-0.242508,2.9814421,0.00004,0.0001449\PG=C01 [X(C4H10
 O1)]\NImag=0\\0.49442221,-0.04903499,0.53253042,-0.00000072,-0.0000017
 4,0.55830407,-0.21209753,0.12389961,-0.00001104,0.23326440,0.12565300,
 -0.14103721,0.00000843,-0.13528098,0.15148766,-0.00001109,0.00000836,-
 0.04736532,0.00001233,-0.00000917,0.04624324,-0.04745717,-0.00464353,-
 0.00731680,0.00146895,0.01426104,0.02209107,0.05102140,-0.00538855,-0.
 13359392,-0.12050517,-0.00097290,-0.01163737,-0.01584519,0.00921620,0.
 14462592,-0.00834795,-0.12096216,-0.21697292,0.00083037,0.00089175,0.0
 0056525,0.00886065,0.13447495,0.23400052,-0.04745836,-0.00465278,0.007
 33082,0.00147084,0.01425957,-0.02209197,-0.00093997,0.00073894,-0.0004
 6538,0.05102276,-0.00539770,-0.13357776,0.12049954,-0.00097429,-0.0116
 3631,0.01584590,0.00074024,0.01233451,-0.01557334,0.00922650,0.1446078
 7,0.00836203,0.12095660,-0.21698853,-0.00083022,-0.00088981,0.00056239
 ,0.00046699,0.01557110,-0.02130071,-0.00887608,-0.13446855,0.23401783,
 -0.15133661,-0.05091900,-0.00000122,-0.02151177,-0.01676871,-0.0000002
 4,-0.00232460,-0.00141066,-0.00025279,-0.00232660,-0.00141191,0.000252
 63,0.44473159,-0.04864377,-0.11256269,-0.00000080,0.01755995,0.0123734
 9,0.00000024,-0.01706962,-0.01201746,0.00039381,-0.01706796,-0.0120164
 6,-0.00039433,0.00499094,0.52114300,-0.00000130,-0.00000089,-0.0786773
 8,-0.00000141,-0.00000115,-0.00139820,-0.02422612,-0.01538420,0.000730
 18,0.02422704,0.01538496,0.00073114,-0.00000579,0.00000169,0.58097187,
 -0.00234789,-0.01826618,-0.02431467,0.00101435,0.00088137,-0.00016171,
 -0.00477327,-0.00356274,0.00028186,0.00125085,0.00065864,0.00050551,-0
 .04678629,-0.00052841,-0.00150327,0.05627393,-0.00169813,-0.01153648,-
 0.01506593,0.00007880,0.00088015,0.00033417,-0.00330330,-0.00120874,0.
 00027318,0.00078883,0.00016074,0.00013521,-0.00089471,-0.13373780,-0.1
 1538164,0.00108404,0.14653065,-0.00032478,0.00060368,0.00067992,-0.000
 64217,0.00002025,0.00005470,0.00004503,0.00057539,0.00163973,-0.000353
 98,-0.00019272,0.00085803,-0.00170202,-0.11658760,-0.21114368,0.001736
 95,0.13031980,0.22726519,-0.00234986,-0.01826448,0.02431564,0.00101428
 ,0.00088138,0.00016172,0.00125086,0.00065859,-0.00050552,-0.00477324,-
 0.00356272,-0.00028214,-0.04678648,-0.00053782,0.00151666,-0.00043750,
 0.00024706,-0.00024513,0.05627413,-0.00169929,-0.01153548,0.01506657,0
 .00007887,0.00088013,-0.00033422,0.00078886,0.00016074,-0.00013510,-0.
 00330327,-0.00120879,-0.00027326,-0.00090400,-0.13372263,0.11537684,0.
 00024830,0.01213635,-0.01505537,0.00109449,0.14651362,0.00032465,-0.00
 060436,0.00068097,0.00064224,-0.00002023,0.00005479,0.00035396,0.00019
 282,0.00085801,-0.00004533,-0.00057549,0.00163975,0.00171540,0.1165828
 7,-0.21115926,0.00024689,0.01505308,-0.02241555,-0.00175093,-0.1303147
 4,0.22728261,-0.03163417,0.01634398,-0.00000182,-0.00388335,-0.0026530
 8,-0.00000007,0.00204109,0.00110825,0.00021304,0.00204101,0.00110827,-
 0.00021296,-0.14102121,0.04559098,-0.00000402,-0.00165743,0.00163989,0
 .00088342,-0.00165548,0.00163850,-0.00088363,0.45987873,-0.01452538,0.
 01345470,-0.00000103,-0.00570521,-0.00225876,-0.00000014,-0.00067202,0
 .00047157,0.00017511,-0.00067194,0.00047153,-0.00017519,0.04824405,-0.
 11788582,0.00000320,0.01693343,-0.01294838,0.00003565,0.01693189,-0.01
 294735,-0.00003343,0.00434450,0.53349393,-0.00000081,0.00000023,-0.000
 36523,0.,-0.00000002,0.00024459,-0.00120339,0.00037789,0.00013155,0.00
 120360,-0.00037783,0.00013166,-0.00000403,0.00000304,-0.07973049,0.023
 60678,-0.01675047,0.00009901,-0.02360801,0.01675147,0.00009593,-0.0000
 0574,0.00000224,0.58799794,0.00182856,0.00050020,0.00094728,0.00030816
 ,-0.00012217,-0.00031336,-0.00026360,-0.00048611,-0.00057433,-0.000109
 44,-0.00003874,0.00001488,-0.00195716,0.01698345,0.02343178,-0.0045208
 9,0.00335381,-0.00010937,0.00115375,-0.00073355,-0.00043203,-0.0467054
 4,0.00013519,0.00096308,0.05406791,-0.00108220,0.00066113,0.00037756,-
 0.00011450,0.00002404,0.00031281,0.00049876,0.00062224,0.00017606,0.00
 006263,0.00005943,0.00008419,0.00154484,-0.01261523,-0.01571974,0.0029
 7198,-0.00155244,0.00024369,-0.00066995,0.00028907,0.00010645,-0.00129
 375,-0.13327122,-0.11679499,0.00057788,0.14727803,-0.00014777,0.000211
 45,0.00018446,0.00012279,0.00026062,0.00023879,0.00057688,0.00016748,0
 .00017830,-0.00001244,-0.00006456,-0.00008134,0.00023942,0.00032353,0.
 00034956,-0.00031491,0.00030367,0.00167854,0.00046730,-0.00019324,0.00
 088617,-0.00000742,-0.11793320,-0.21473579,-0.00026464,0.13160307,0.23
 044240,0.00182862,0.00050017,-0.00094718,0.00030815,-0.00012213,0.0003
 1336,-0.00010944,-0.00003875,-0.00001489,-0.00026360,-0.00048605,0.000
 57432,-0.00195517,0.01698206,-0.02343297,0.00115373,-0.00073353,0.0004
 3210,-0.00452093,0.00335385,0.00010865,-0.04670547,0.00012507,-0.00094
 868,-0.00031027,-0.00002252,0.00000957,0.05406798,-0.00108218,0.000661
 11,-0.00037767,-0.00011449,0.00002401,-0.00031281,0.00006265,0.0000594
 3,-0.00008419,0.00049875,0.00062222,-0.00017605,0.00154347,-0.01261428
 ,0.01572065,-0.00066997,0.00028906,-0.00010647,0.00297201,-0.00155248,
 -0.00024325,-0.00130368,-0.13325722,0.11678960,-0.00002122,0.01177857,
 -0.01518903,0.00058920,0.14726240,0.00014799,-0.00021144,0.00018445,-0
 .00012277,-0.00026062,0.00023884,0.00001243,0.00006455,-0.00008134,-0.
 00057694,-0.00016755,0.00017832,-0.00023973,-0.00032127,0.00034658,-0.
 00046724,0.00019321,0.00088614,0.00031419,-0.00030318,0.00167861,0.000
 02192,0.11792794,-0.21474901,-0.00000773,0.01518709,-0.02185829,0.0002
 4955,-0.13159766,0.23045723,-0.00155186,0.00147218,-0.00000007,-0.0000
 1457,-0.00047931,0.,-0.00002412,0.00017341,0.00002022,-0.00002412,0.00
 017342,-0.00002026,-0.02677046,-0.00768605,-0.00000082,0.00116509,-0.0
 0102271,-0.00046817,0.00116518,-0.00102270,0.00046835,-0.14129037,-0.0
 6740902,-0.00000071,-0.00273806,-0.00124440,0.00014368,-0.00274012,-0.
 00124588,-0.00014387,0.45215522,0.00387402,-0.00426437,0.00000030,0.00
 182209,0.00097111,0.00000006,-0.00026299,0.00005059,0.00025302,-0.0002
 6299,0.00005057,-0.00025303,0.01614512,0.01450841,0.00000019,0.0012587
 5,-0.00011803,-0.00042479,0.00125866,-0.00011801,0.00042491,-0.0512450
 2,-0.12455028,-0.00000092,-0.01907464,-0.01401036,-0.00039692,-0.01907
 325,-0.01400941,0.00039602,0.03144956,0.52593911,-0.00000013,0.0000001
 4,-0.00091985,-0.00000008,-0.00000003,0.00062259,0.00003518,0.00016445
 ,0.00029871,-0.00003519,-0.00016441,0.00029874,-0.00000146,-0.00000078
 ,-0.00177306,0.00149056,-0.00026143,-0.00020859,-0.00149055,0.00026131
 ,-0.00020875,-0.00000112,-0.00000160,-0.08115404,-0.02499187,-0.017227
 88,-0.00057468,0.02499274,0.01722849,-0.00057355,-0.00000516,0.0000027
 9,0.58125747,-0.00012619,-0.00000065,0.00007413,-0.00003837,0.00005938
 ,0.00007143,0.00009805,0.00017088,0.00016947,0.00002082,-0.00001807,0.
 00000083,0.00176056,-0.00086182,-0.00074984,-0.00030495,0.00050526,0.0
 0054027,-0.00011296,0.00004613,-0.00002291,-0.00218261,-0.01650766,-0.
 02421664,-0.00490582,-0.00318593,0.00030546,0.00127343,0.00074372,0.00
 057270,-0.04961429,-0.01258582,-0.01319721,0.06005547,-0.00015101,0.00
 019022,0.00035775,-0.00007779,0.00002691,0.00005596,0.00023422,0.00009
 826,0.00007060,-0.00000884,-0.00004841,-0.00001762,0.00084331,0.000019
 48,-0.00011468,-0.00044305,0.00071093,0.00029826,-0.00007901,0.0000663
 1,0.00008383,-0.00339058,-0.01082312,-0.01664988,-0.00288729,-0.001421
 93,0.00001745,0.00090339,0.00040974,0.00003867,-0.01071994,-0.12315936
 ,-0.10508663,0.00321589,0.14162912,-0.00022279,0.00035230,0.00035827,-
 0.00012130,-0.00004196,-0.00002730,0.00020047,0.00008086,-0.00002138,0
 .00001532,-0.00000894,-0.00002391,0.00012463,-0.00021455,-0.00009066,-
 0.00054560,0.00032780,0.00041113,0.00003767,-0.00008117,-0.00001801,-0
 .00001536,0.00014114,-0.00003591,0.00011241,0.00025585,0.00167171,-0.0
 0036118,-0.00013790,0.00112789,-0.01294852,-0.10836855,-0.21685523,0.0
 1040131,0.12322564,0.22847543,-0.00012619,-0.00000062,-0.00007416,-0.0
 0003838,0.00005937,-0.00007143,0.00002083,-0.00001806,-0.00000082,0.00
 009808,0.00017088,-0.00016947,0.00176050,-0.00086180,0.00075006,-0.000
 11296,0.00004614,0.00002291,-0.00030495,0.00050524,-0.00054036,-0.0021
 8451,-0.01650651,0.02421720,0.00127343,0.00074366,-0.00057272,-0.00490
 576,-0.00318596,-0.00030585,-0.04961626,-0.01259345,0.01321023,0.00274
 317,0.00019972,-0.00278111,0.06005711,-0.00015097,0.00019017,-0.000357
 77,-0.00007778,0.00002691,-0.00005597,-0.00000884,-0.00004841,0.000017
 63,0.00023422,0.00009825,-0.00007059,0.00084334,0.00001954,0.00011477,
 -0.00007901,0.00006630,-0.00008384,-0.00044302,0.00071090,-0.00029834,
 -0.00339184,-0.01082236,0.01665016,0.00090340,0.00040974,-0.00003857,-
 0.00288729,-0.00142195,-0.00001754,-0.01072746,-0.12315011,0.10508156,
 0.00020091,0.01151663,-0.01417680,0.00322474,0.14161841,0.00022276,-0.
 00035228,0.00035831,0.00012131,0.00004196,-0.00002729,-0.00001532,0.00
 000893,-0.00002392,-0.00020047,-0.00008085,-0.00002140,-0.00012456,0.0
 0021445,-0.00009060,-0.00003766,0.00008117,-0.00001803,0.00054556,-0.0
 0032777,0.00041117,0.00001541,-0.00014186,-0.00003483,0.00036115,0.000
 13800,0.00112783,-0.00011278,-0.00025593,0.00167170,0.01296152,0.10836
 321,-0.21686199,0.00278305,0.01417533,-0.02299781,-0.01041410,-0.12322
 143,0.22848403,-0.00120846,0.00251338,-0.00000015,-0.00111976,-0.00047
 878,-0.00000003,-0.00003320,-0.00019377,-0.00019754,-0.00003320,-0.000
 19375,0.00019755,-0.00485749,-0.00700954,0.00000002,0.00011386,-0.0001
 5021,0.00006776,0.00011381,-0.00015018,-0.00006777,-0.04054893,0.02866
 733,-0.00000236,0.00231954,0.00098204,-0.00054483,0.00231953,0.0009821
 3,0.00054496,-0.15357415,0.08017645,-0.00000516,-0.01027361,0.01311569
 ,0.00522896,-0.01027144,0.01311428,-0.00523092,0.59064432,-0.00095842,
 0.00070294,-0.00000005,-0.00024560,-0.00017683,0.,0.00016852,0.0000874
 2,0.00001672,0.00016852,0.00008741,-0.00001671,-0.00304112,-0.00185275
 ,-0.00000006,-0.00038746,0.00025713,0.00038405,-0.00038740,0.00025709,
 -0.00038408,-0.01069322,0.01397652,-0.00000065,0.00086882,0.00173034,0
 .00061512,0.00086881,0.00173024,-0.00061513,0.03747274,-0.14912332,0.0
 0000286,0.02767943,-0.01925938,-0.00075671,0.02767839,-0.01925860,0.00
 075999,0.11276373,0.35613176,-0.00000005,0.00000011,0.00050401,-0.0000
 0004,-0.00000002,-0.00000316,0.00012595,0.00007400,0.00000485,-0.00012
 596,-0.00007402,0.00000487,-0.00000017,-0.00000027,0.00011756,-0.00045
 722,0.00040817,0.00027759,0.00045724,-0.00040817,0.00027768,-0.0000015
 1,0.00000089,0.00246396,0.00078553,0.00110477,0.00034592,-0.00078543,-
 0.00110475,0.00034599,-0.00000474,0.00000482,-0.06150059,0.02265839,-0
 .01702182,0.00772254,-0.02266088,0.01702391,0.00771975,0.00002267,0.00
 000064,0.04341583,-0.00038511,0.00055271,-0.00000004,-0.00014541,-0.00
 014994,0.,0.00002420,0.00000529,-0.00001639,0.00002419,0.00000529,0.00
 001639,-0.00061883,-0.00184059,0.,-0.00003064,0.00005876,0.00011718,-0
 .00003063,0.00005875,-0.00011718,-0.00449185,0.00661629,-0.00000032,0.
 00055933,0.00023146,-0.00000036,0.00055931,0.00023145,0.00000039,-0.02
 652710,-0.02088649,-0.00000079,0.00160729,-0.00075472,0.00087508,0.001
 60732,-0.00075469,-0.00087493,-0.37359084,-0.19195573,-0.00001377,0.40
 143878,0.00028556,-0.00028277,0.00000002,0.00012421,0.00005207,0.,-0.0
 0001018,-0.00000480,0.00001196,-0.00001018,-0.00000480,-0.00001196,0.0
 0119504,0.00096119,0.00000004,-0.00009969,0.00007055,-0.00002999,-0.00
 009968,0.00007054,0.00002998,0.00219681,-0.00310374,0.00000014,0.00004
 097,0.00001858,0.00031311,0.00004099,0.00001855,-0.00031309,0.03081616
 ,0.01098346,0.00000115,0.00053835,0.00004460,-0.00059701,0.00053827,0.
 00004456,0.00059707,-0.24413880,-0.18528997,-0.00000826,0.20858217,0.1
 7642196,-0.00000002,0.00000002,0.00003475,0.,0.,-0.00000389,-0.0000069
 5,-0.00001786,-0.00000684,0.00000695,0.00001786,-0.00000684,-0.0000000
 7,-0.00000005,0.00081646,-0.00006628,0.00002998,-0.00006413,0.00006628
 ,-0.00002999,-0.00006413,-0.00000015,0.00000027,-0.00035933,0.00007721
 ,0.00015306,0.00014641,-0.00007719,-0.00015303,0.00014642,-0.00000144,
 -0.00000109,-0.00184717,0.00060957,0.00056713,0.00030323,-0.00060950,-
 0.00056717,0.00030307,-0.00001314,-0.00000598,-0.00169680,0.00001473,0
 .00000684,0.00229880\\-0.00000018,-0.00000060,0.00000031,-0.00000017,-
 0.00000001,-0.00000011,-0.00000004,0.00000017,-0.00000010,0.00000010,0
 .00000024,-0.00000008,0.00000065,0.00000010,-0.00000019,-0.00000011,0.
 00000008,0.00000004,-0.00000004,-0.00000005,0.00000012,-0.00000107,-0.
 00000023,-0.00000028,0.00000013,0.00000003,0.00000002,0.00000010,-0.00
 000012,0.00000024,0.00000101,0.00000030,0.00000007,-0.00000006,-0.0000
 0023,-0.00000016,-0.00000014,-0.00000011,0.00000009,-0.00000056,0.0000
 0046,-0.00000003,0.00000039,-0.00000002,0.00000004\\\@


 IF THERE IS ONE WAY BETTER THAN ANOTHER IT IS THE WAY OF NATURE.

                          -- ARISTOTLE
 Job cpu time:       0 days  4 hours 24 minutes 18.8 seconds.
 Elapsed time:       0 days  4 hours 24 minutes 17.8 seconds.
 File lengths (MBytes):  RWF=    214 Int=      0 D2E=      0 Chk=     18 Scr=      1
 Normal termination of Gaussian 16 at Thu Dec 21 05:47:51 2017.
