 Entering Gaussian System, Link 0=g03
 Initial command:
 /pdc/vol/gaussian/G03RevD.01/g03/l1.exe /scratch/Gau-20357.inp -scrdir=/scratch/
 Default is to use a total of   8 processors:
                                8 via shared-memory
                                1 via Linda
 Entering Link 1 = /pdc/vol/gaussian/G03RevD.01/g03/l1.exe PID=     20358.
  
 Copyright (c) 1988,1990,1992,1993,1995,1998,2003,2004, Gaussian, Inc.
                  All Rights Reserved.
  
 This is the Gaussian(R) 03 program.  It is based on the
 the Gaussian(R) 98 system (copyright 1998, Gaussian, Inc.),
 the Gaussian(R) 94 system (copyright 1995, Gaussian, Inc.),
 the Gaussian 92(TM) system (copyright 1992, Gaussian, Inc.),
 the Gaussian 90(TM) system (copyright 1990, Gaussian, Inc.),
 the Gaussian 88(TM) system (copyright 1988, Gaussian, Inc.),
 the Gaussian 86(TM) system (copyright 1986, Carnegie Mellon
 University), and the Gaussian 82(TM) system (copyright 1983,
 Carnegie Mellon University). Gaussian is a federally registered
 trademark of Gaussian, Inc.
  
 This software contains proprietary and confidential information,
 including trade secrets, belonging to Gaussian, Inc.
  
 This software is provided under written license and may be
 used, copied, transmitted, or stored only in accord with that
 written license.
  
 The following legend is applicable only to US Government
 contracts under FAR:
  
                    RESTRICTED RIGHTS LEGEND
  
 Use, reproduction and disclosure by the US Government is
 subject to restrictions as set forth in subparagraphs (a)
 and (c) of the Commercial Computer Software - Restricted
 Rights clause in FAR 52.227-19.
  
 Gaussian, Inc.
 340 Quinnipiac St., Bldg. 40, Wallingford CT 06492
  
  
 ---------------------------------------------------------------
 Warning -- This program may not be used in any manner that
 competes with the business of Gaussian, Inc. or will provide
 assistance to any competitor of Gaussian, Inc.  The licensee
 of this program is prohibited from giving any competitor of
 Gaussian, Inc. access to this program.  By using this program,
 the user acknowledges that Gaussian, Inc. is engaged in the
 business of creating and licensing software in the field of
 computational chemistry and represents and warrants to the
 licensee that it is not a competitor of Gaussian, Inc. and that
 it will not use this program in any manner prohibited above.
 ---------------------------------------------------------------
  

 Cite this work as:
 Gaussian 03, Revision D.01,
 M. J. Frisch, G. W. Trucks, H. B. Schlegel, G. E. Scuseria, 
 M. A. Robb, J. R. Cheeseman, J. A. Montgomery, Jr., T. Vreven, 
 K. N. Kudin, J. C. Burant, J. M. Millam, S. S. Iyengar, J. Tomasi, 
 V. Barone, B. Mennucci, M. Cossi, G. Scalmani, N. Rega, 
 G. A. Petersson, H. Nakatsuji, M. Hada, M. Ehara, K. Toyota, 
 R. Fukuda, J. Hasegawa, M. Ishida, T. Nakajima, Y. Honda, O. Kitao, 
 H. Nakai, M. Klene, X. Li, J. E. Knox, H. P. Hratchian, J. B. Cross, 
 V. Bakken, C. Adamo, J. Jaramillo, R. Gomperts, R. E. Stratmann, 
 O. Yazyev, A. J. Austin, R. Cammi, C. Pomelli, J. W. Ochterski, 
 P. Y. Ayala, K. Morokuma, G. A. Voth, P. Salvador, J. J. Dannenberg, 
 V. G. Zakrzewski, S. Dapprich, A. D. Daniels, M. C. Strain, 
 O. Farkas, D. K. Malick, A. D. Rabuck, K. Raghavachari, 
 J. B. Foresman, J. V. Ortiz, Q. Cui, A. G. Baboul, S. Clifford, 
 J. Cioslowski, B. B. Stefanov, G. Liu, A. Liashenko, P. Piskorz, 
 I. Komaromi, R. L. Martin, D. J. Fox, T. Keith, M. A. Al-Laham, 
 C. Y. Peng, A. Nanayakkara, M. Challacombe, P. M. W. Gill, 
 B. Johnson, W. Chen, M. W. Wong, C. Gonzalez, and J. A. Pople, 
 Gaussian, Inc., Wallingford CT, 2004.
 
 ******************************************
 Gaussian 03:  AM64L-G03RevD.01 13-Oct-2005
                12-Nov-2011 
 ******************************************
 %nprocshared=8
 Will use up to    8 processors via shared memory.
 %mem=7GB
 %chk=2-furanmethanethiol3
 ----------------------------------------------------------------------
 #P B3LYP/aug-cc-pVTZ Int(Grid=Ultrafine) maxdisk=40GB Density=Checkpoint Geom=
 AllCheck Pop=(MK,ReadRadii) iop(6/33=2) iop(6/42=6)
 ----------------------------------------------------------------------
 Warning!  Basis set taken from checkpoint file.
 1/29=7,38=1/1;
 2/40=1/2;
 3/5=7,6=2,11=2,16=1,25=1,30=1,67=1,74=-5,75=5/1,2,3;
 4//1;
 6/7=2,8=2,9=2,10=2,11=2,12=2,15=8,20=101,22=10,28=1,33=2,42=6/1,2;
 99/5=2/99;
 Leave Link    1 at Sat Nov 12 01:43:55 2011, MaxMem=  939524096 cpu:       1.8
 (Enter /pdc/vol/gaussian/G03RevD.01/g03/l101.exe)
 -------------------
 2-furanmethanethiol
 -------------------
 Redundant internal coordinates taken from checkpoint file:
 2-furanmethanethiol3.chk
 Charge =  0 Multiplicity = 1
 O,0,0.,0.,0.
 C,0,0.,0.,1.3628
 C,0,1.2698196111,0.,1.8327725047
 C,0,2.1203695139,-0.0040767487,0.6824835832
 C,0,1.3060377942,-0.0046747946,-0.4052668168
 H,0,-0.9657477139,0.005225249,1.8340421988
 H,0,1.5676710582,0.0033263011,2.8667209808
 H,0,3.1965580937,-0.0091130673,0.6678389239
 C,0,1.5513579457,-0.0191657892,-1.8606650559
 S,0,1.2502960068,-1.6538799995,-2.6868306565
 H,0,0.9518937999,0.7323470843,-2.3706164053
 H,0,2.5994374427,0.1940291179,-2.0558089503
 H,0,-0.0677059675,-1.7118004267,-2.427608223
 Recover connectivity data from disk.
                    Isotopes and Nuclear Properties:
 (Nuclear quadrupole moments (NQMom) in fm**2, nuclear magnetic moments (NMagM)
  in nuclear magnetons)

  Atom         1           2           3           4           5           6           7           8           9          10
 IAtWgt=          16          12          12          12          12           1           1           1          12          32
 AtmWgt=  15.9949146  12.0000000  12.0000000  12.0000000  12.0000000   1.0078250   1.0078250   1.0078250  12.0000000  31.9720718
 NucSpn=           0           0           0           0           0           1           1           1           0           0
 AtZEff=  -5.6000000  -3.6000000  -3.6000000  -3.6000000  -3.6000000  -1.0000000  -1.0000000  -1.0000000  -3.6000000 -13.6000000
 NQMom=    0.0000000   0.0000000   0.0000000   0.0000000   0.0000000   0.0000000   0.0000000   0.0000000   0.0000000   0.0000000
 NMagM=    0.0000000   0.0000000   0.0000000   0.0000000   0.0000000   2.7928460   2.7928460   2.7928460   0.0000000   0.0000000

  Atom        11          12          13
 IAtWgt=           1           1           1
 AtmWgt=   1.0078250   1.0078250   1.0078250
 NucSpn=           1           1           1
 AtZEff=  -1.0000000  -1.0000000  -1.0000000
 NQMom=    0.0000000   0.0000000   0.0000000
 NMagM=    2.7928460   2.7928460   2.7928460
 Leave Link  101 at Sat Nov 12 01:44:00 2011, MaxMem=  939524096 cpu:       0.7
 (Enter /pdc/vol/gaussian/G03RevD.01/g03/l202.exe)
                          Input orientation:                          
 ---------------------------------------------------------------------
 Center     Atomic     Atomic              Coordinates (Angstroms)
 Number     Number      Type              X           Y           Z
 ---------------------------------------------------------------------
    1          8             0        0.000000    0.000000    0.000000
    2          6             0        0.000000    0.000000    1.362800
    3          6             0        1.269820    0.000000    1.832773
    4          6             0        2.120370   -0.004077    0.682484
    5          6             0        1.306038   -0.004675   -0.405267
    6          1             0       -0.965748    0.005225    1.834042
    7          1             0        1.567671    0.003326    2.866721
    8          1             0        3.196558   -0.009113    0.667839
    9          6             0        1.551358   -0.019166   -1.860665
   10         16             0        1.250296   -1.653880   -2.686831
   11          1             0        0.951894    0.732347   -2.370616
   12          1             0        2.599437    0.194029   -2.055809
   13          1             0       -0.067706   -1.711800   -2.427608
 ---------------------------------------------------------------------
                    Distance matrix (angstroms):
                    1          2          3          4          5
     1  O    0.000000
     2  C    1.362800   0.000000
     3  C    2.229685   1.354000   0.000000
     4  C    2.227502   2.226839   1.430600   0.000000
     5  C    1.367479   2.198139   2.238337   1.358800   0.000000
     6  H    2.072778   1.074600   2.235574   3.293978   3.189924
     7  H    3.267368   2.172414   1.076000   2.253092   3.282441
     8  H    3.265590   3.271244   2.251549   1.076300   2.173854
     9  C    2.422634   3.577402   3.704202   2.606071   1.476000
    10  S    3.393762   4.549513   4.812745   3.851124   2.815763
    11  H    2.657491   3.921840   4.278538   3.350981   2.128666
    12  H    3.319800   4.299024   4.114195   2.786933   2.106337
    13  H    2.971216   4.159572   4.782267   4.168533   2.981831
                    6          7          8          9         10
     6  H    0.000000
     7  H    2.735807   0.000000
     8  H    4.322618   2.736514   0.000000
     9  C    4.470713   4.727468   3.016640   0.000000
    10  S    5.301110   5.804222   4.212719   1.856200   0.000000
    11  H    4.678163   5.323566   3.849739   1.088200   2.425513
    12  H    5.279880   5.033111   2.795725   1.087200   2.373424
    13  H    4.681487   5.800521   4.810027   2.409939   1.344500
                   11         12         13
    11  H    0.000000
    12  H    1.761616   0.000000
    13  H    2.648903   3.299102   0.000000
 Stoichiometry    C5H6OS
 Framework group  C1[X(C5H6OS)]
 Deg. of freedom    33
 Full point group                 C1
 Largest Abelian subgroup         C1      NOp   1
 Largest concise Abelian subgroup C1      NOp   1
                         Standard orientation:                         
 ---------------------------------------------------------------------
 Center     Atomic     Atomic              Coordinates (Angstroms)
 Number     Number      Type              X           Y           Z
 ---------------------------------------------------------------------
    1          8             0        0.803076   -0.959195    0.381626
    2          6             0        2.083733   -0.894686   -0.079872
    3          6             0        2.397525    0.378039   -0.419021
    4          6             0        1.229599    1.160502   -0.153846
    5          6             0        0.289210    0.306984    0.329385
    6          1             0        2.625516   -1.822543   -0.097697
    7          1             0        3.340250    0.720853   -0.808283
    8          1             0        1.105834    2.218763   -0.306122
    9          6             0       -1.107900    0.477251    0.773986
   10         16             0       -2.388133   -0.131825   -0.424140
   11          1             0       -1.281183   -0.011491    1.730691
   12          1             0       -1.327142    1.535798    0.889813
   13          1             0       -2.030758   -1.427172   -0.378971
 ---------------------------------------------------------------------
 Rotational constants (GHZ):      6.0508369      1.2687881      1.1629718
 Leave Link  202 at Sat Nov 12 01:44:06 2011, MaxMem=  939524096 cpu:       0.5
 (Enter /pdc/vol/gaussian/G03RevD.01/g03/l301.exe)
 Basis read from chk: 2-furanmethanethiol3.chk (5D, 7F)
 No pseudopotential information found on chk file.
 There are   464 symmetry adapted basis functions of A   symmetry.
 Integral buffers will be    131072 words long.
 Raffenetti 2 integral format.
 Two-electron integral symmetry is turned on.
   464 basis functions,   743 primitive gaussians,   539 cartesian basis functions
    30 alpha electrons       30 beta electrons
       nuclear repulsion energy       339.0808183584 Hartrees.
 IExCor= 402 DFT=T Ex=B+HF Corr=LYP ExCW=0 ScaHFX=  0.200000
 ScaDFX=  0.800000  0.720000  1.000000  0.810000
 IRadAn=      5 IRanWt=     -1 IRanGd=            0 ICorTp=0
 NAtoms=   13 NActive=   13 NUniq=   13 SFac= 7.50D-01 NAtFMM=   80 NAOKFM=F Big=F
 No density basis found on file 20724.
 Leave Link  301 at Sat Nov 12 01:44:12 2011, MaxMem=  939524096 cpu:       0.4
 (Enter /pdc/vol/gaussian/G03RevD.01/g03/l302.exe)
 NPDir=0 NMtPBC=     1 NCelOv=     1 NCel=       1 NClECP=     1 NCelD=      1
         NCelK=      1 NCelE2=     1 NClLst=     1 CellRange=     0.0.
 One-electron integrals computed using PRISM.
 NBasis=   464 RedAO= T  NBF=   464
 NBsUse=   464 1.00D-06 NBFU=   464
 Precomputing XC quadrature grid using
 IXCGrd= 2 IRadAn=           5 IRanWt=          -1 IRanGd=           0.
 NRdTot=    1115 NPtTot=      300070 NUsed=      307928 NTot=      307960
 NSgBfM=   539   539   539   539.
 Leave Link  302 at Sat Nov 12 01:44:19 2011, MaxMem=  939524096 cpu:       8.0
 (Enter /pdc/vol/gaussian/G03RevD.01/g03/l303.exe)
 DipDrv:  MaxL=1.
 Leave Link  303 at Sat Nov 12 01:44:24 2011, MaxMem=  939524096 cpu:       1.3
 (Enter /pdc/vol/gaussian/G03RevD.01/g03/l401.exe)
 Harris functional with IExCor=  402 diagonalized for initial guess.
 ExpMin= 2.53D-02 ExpMax= 3.74D+05 ExpMxC= 1.18D+03 IAcc=3 IRadAn=         5 AccDes= 0.00D+00
 HarFok:  IExCor= 402 AccDes= 0.00D+00 IRadAn=         5 IDoV=1
 ScaDFX=  1.000000  1.000000  1.000000  1.000000
 Harris En= -667.743485194281    
 Initial guess orbital symmetries:
       Occupied  (A) (A) (A) (A) (A) (A) (A) (A) (A) (A) (A) (A)
                 (A) (A) (A) (A) (A) (A) (A) (A) (A) (A) (A) (A)
                 (A) (A) (A) (A) (A) (A)
       Virtual   (A) (A) (A) (A) (A) (A) (A) (A) (A) (A) (A) (A)
                 (A) (A) (A) (A) (A) (A) (A) (A) (A) (A) (A) (A)
                 (A) (A) (A) (A) (A) (A) (A) (A) (A) (A) (A) (A)
                 (A) (A) (A) (A) (A) (A) (A) (A) (A) (A) (A) (A)
                 (A) (A) (A) (A) (A) (A) (A) (A) (A) (A) (A) (A)
                 (A) (A) (A) (A) (A) (A) (A) (A) (A) (A) (A) (A)
                 (A) (A) (A) (A) (A) (A) (A) (A) (A) (A) (A) (A)
                 (A) (A) (A) (A) (A) (A) (A) (A) (A) (A) (A) (A)
                 (A) (A) (A) (A) (A) (A) (A) (A) (A) (A) (A) (A)
                 (A) (A) (A) (A) (A) (A) (A) (A) (A) (A) (A) (A)
                 (A) (A) (A) (A) (A) (A) (A) (A) (A) (A) (A) (A)
                 (A) (A) (A) (A) (A) (A) (A) (A) (A) (A) (A) (A)
                 (A) (A) (A) (A) (A) (A) (A) (A) (A) (A) (A) (A)
                 (A) (A) (A) (A) (A) (A) (A) (A) (A) (A) (A) (A)
                 (A) (A) (A) (A) (A) (A) (A) (A) (A) (A) (A) (A)
                 (A) (A) (A) (A) (A) (A) (A) (A) (A) (A) (A) (A)
                 (A) (A) (A) (A) (A) (A) (A) (A) (A) (A) (A) (A)
                 (A) (A) (A) (A) (A) (A) (A) (A) (A) (A) (A) (A)
                 (A) (A) (A) (A) (A) (A) (A) (A) (A) (A) (A) (A)
                 (A) (A) (A) (A) (A) (A) (A) (A) (A) (A) (A) (A)
                 (A) (A) (A) (A) (A) (A) (A) (A) (A) (A) (A) (A)
                 (A) (A) (A) (A) (A) (A) (A) (A) (A) (A) (A) (A)
                 (A) (A) (A) (A) (A) (A) (A) (A) (A) (A) (A) (A)
                 (A) (A) (A) (A) (A) (A) (A) (A) (A) (A) (A) (A)
                 (A) (A) (A) (A) (A) (A) (A) (A) (A) (A) (A) (A)
                 (A) (A) (A) (A) (A) (A) (A) (A) (A) (A) (A) (A)
                 (A) (A) (A) (A) (A) (A) (A) (A) (A) (A) (A) (A)
                 (A) (A) (A) (A) (A) (A) (A) (A) (A) (A) (A) (A)
                 (A) (A) (A) (A) (A) (A) (A) (A) (A) (A) (A) (A)
                 (A) (A) (A) (A) (A) (A) (A) (A) (A) (A) (A) (A)
                 (A) (A) (A) (A) (A) (A) (A) (A) (A) (A) (A) (A)
                 (A) (A) (A) (A) (A) (A) (A) (A) (A) (A) (A) (A)
                 (A) (A) (A) (A) (A) (A) (A) (A) (A) (A) (A) (A)
                 (A) (A) (A) (A) (A) (A) (A) (A) (A) (A) (A) (A)
                 (A) (A) (A) (A) (A) (A) (A) (A) (A) (A) (A) (A)
                 (A) (A) (A) (A) (A) (A) (A) (A) (A) (A) (A) (A)
                 (A) (A)
 The electronic state of the initial guess is 1-A.
 Leave Link  401 at Sat Nov 12 01:44:43 2011, MaxMem=  939524096 cpu:     103.2
 (Enter /pdc/vol/gaussian/G03RevD.01/g03/l601.exe)
 Using densities on the checkpoint file.

 **********************************************************************

            Population analysis using the SCF density.

 **********************************************************************

 Orbital symmetries:
 BldTbl:  Degeneracy threshold= 1.00D-02
       Occupied  (A) (A) (A) (A) (A) (A) (A) (A) (A) (A) (A) (A)
                 (A) (A) (A) (A) (A) (A) (A) (A) (A) (A) (A) (A)
                 (A) (A) (A) (A) (A) (A)
       Virtual   (A) (A) (A) (A) (A) (A) (A) (A) (A) (A) (A) (A)
                 (A) (A) (A) (A) (A) (A) (A) (A) (A) (A) (A) (A)
                 (A) (A) (A) (A) (A) (A) (A) (A) (A) (A) (A) (A)
                 (A) (A) (A) (A) (A) (A) (A) (A) (A) (A) (A) (A)
                 (A) (A) (A) (A) (A) (A) (A) (A) (A) (A) (A) (A)
                 (A) (A) (A) (A) (A) (A) (A) (A) (A) (A) (A) (A)
                 (A) (A) (A) (A) (A) (A) (A) (A) (A) (A) (A) (A)
                 (A) (A) (A) (A) (A) (A) (A) (A) (A) (A) (A) (A)
                 (A) (A) (A) (A) (A) (A) (A) (A) (A) (A) (A) (A)
                 (A) (A) (A) (A) (A) (A) (A) (A) (A) (A) (A) (A)
                 (A) (A) (A) (A) (A) (A) (A) (A) (A) (A) (A) (A)
                 (A) (A) (A) (A) (A) (A) (A) (A) (A) (A) (A) (A)
                 (A) (A) (A) (A) (A) (A) (A) (A) (A) (A) (A) (A)
                 (A) (A) (A) (A) (A) (A) (A) (A) (A) (A) (A) (A)
                 (A) (A) (A) (A) (A) (A) (A) (A) (A) (A) (A) (A)
                 (A) (A) (A) (A) (A) (A) (A) (A) (A) (A) (A) (A)
                 (A) (A) (A) (A) (A) (A) (A) (A) (A) (A) (A) (A)
                 (A) (A) (A) (A) (A) (A) (A) (A) (A) (A) (A) (A)
                 (A) (A) (A) (A) (A) (A) (A) (A) (A) (A) (A) (A)
                 (A) (A) (A) (A) (A) (A) (A) (A) (A) (A) (A) (A)
                 (A) (A) (A) (A) (A) (A) (A) (A) (A) (A) (A) (A)
                 (A) (A) (A) (A) (A) (A) (A) (A) (A) (A) (A) (A)
                 (A) (A) (A) (A) (A) (A) (A) (A) (A) (A) (A) (A)
                 (A) (A) (A) (A) (A) (A) (A) (A) (A) (A) (A) (A)
                 (A) (A) (A) (A) (A) (A) (A) (A) (A) (A) (A) (A)
                 (A) (A) (A) (A) (A) (A) (A) (A) (A) (A) (A) (A)
                 (A) (A) (A) (A) (A) (A) (A) (A) (A) (A) (A) (A)
                 (A) (A) (A) (A) (A) (A) (A) (A) (A) (A) (A) (A)
                 (A) (A) (A) (A) (A) (A) (A) (A) (A) (A) (A) (A)
                 (A) (A) (A) (A) (A) (A) (A) (A) (A) (A) (A) (A)
                 (A) (A) (A) (A) (A) (A) (A) (A) (A) (A) (A) (A)
                 (A) (A) (A) (A) (A) (A) (A) (A) (A) (A) (A) (A)
                 (A) (A) (A) (A) (A) (A) (A) (A) (A) (A) (A) (A)
                 (A) (A) (A) (A) (A) (A) (A) (A) (A) (A) (A) (A)
                 (A) (A) (A) (A) (A) (A) (A) (A) (A) (A) (A) (A)
                 (A) (A) (A) (A) (A) (A) (A) (A) (A) (A) (A) (A)
                 (A) (A)
 The electronic state is 1-A.
 Alpha  occ. eigenvalues --  -88.18452 -18.98492 -10.14460 -10.14376 -10.13702
 Alpha  occ. eigenvalues --  -10.13040 -10.12791  -7.74594  -5.77134  -5.77016
 Alpha  occ. eigenvalues --   -5.76862  -1.11685  -0.88315  -0.84708  -0.77625
 Alpha  occ. eigenvalues --   -0.69239  -0.66721  -0.63313  -0.59478  -0.52519
 Alpha  occ. eigenvalues --   -0.50920  -0.50481  -0.49903  -0.48269  -0.44859
 Alpha  occ. eigenvalues --   -0.43691  -0.37425  -0.36820  -0.31130  -0.27071
 Alpha virt. eigenvalues --   -0.13760  -0.09775  -0.06350  -0.04505  -0.03131
 Alpha virt. eigenvalues --   -0.01808  -0.00983  -0.00197   0.00591   0.01074
 Alpha virt. eigenvalues --    0.01112   0.02210   0.02853   0.03371   0.03820
 Alpha virt. eigenvalues --    0.03979   0.05156   0.05569   0.06012   0.06089
 Alpha virt. eigenvalues --    0.06145   0.06479   0.07041   0.07149   0.07593
 Alpha virt. eigenvalues --    0.08782   0.09075   0.09633   0.09736   0.10477
 Alpha virt. eigenvalues --    0.10901   0.11922   0.12540   0.13482   0.14174
 Alpha virt. eigenvalues --    0.14824   0.15386   0.16083   0.16352   0.17285
 Alpha virt. eigenvalues --    0.17590   0.17909   0.18119   0.18823   0.19098
 Alpha virt. eigenvalues --    0.19944   0.20468   0.21241   0.21487   0.21840
 Alpha virt. eigenvalues --    0.22585   0.23376   0.23650   0.24199   0.25026
 Alpha virt. eigenvalues --    0.25617   0.26007   0.26394   0.27282   0.28143
 Alpha virt. eigenvalues --    0.28307   0.28729   0.29205   0.30016   0.30728
 Alpha virt. eigenvalues --    0.31186   0.31577   0.32252   0.33143   0.33381
 Alpha virt. eigenvalues --    0.34227   0.35011   0.35452   0.36001   0.36509
 Alpha virt. eigenvalues --    0.36762   0.37354   0.38467   0.38994   0.39385
 Alpha virt. eigenvalues --    0.39866   0.40984   0.41608   0.41762   0.42987
 Alpha virt. eigenvalues --    0.43347   0.44063   0.44430   0.45196   0.46450
 Alpha virt. eigenvalues --    0.47180   0.48196   0.49370   0.49989   0.50192
 Alpha virt. eigenvalues --    0.51421   0.51605   0.52171   0.52425   0.54451
 Alpha virt. eigenvalues --    0.55488   0.55991   0.56410   0.57503   0.58326
 Alpha virt. eigenvalues --    0.59484   0.59851   0.61026   0.61357   0.61771
 Alpha virt. eigenvalues --    0.62253   0.63238   0.64446   0.64654   0.65411
 Alpha virt. eigenvalues --    0.66409   0.66760   0.67185   0.68068   0.69513
 Alpha virt. eigenvalues --    0.70583   0.70761   0.71318   0.72596   0.72982
 Alpha virt. eigenvalues --    0.73881   0.74779   0.75577   0.76771   0.77973
 Alpha virt. eigenvalues --    0.78734   0.79427   0.79972   0.80793   0.81206
 Alpha virt. eigenvalues --    0.82066   0.83194   0.83957   0.84339   0.85114
 Alpha virt. eigenvalues --    0.85217   0.86339   0.87744   0.88321   0.88892
 Alpha virt. eigenvalues --    0.89947   0.90454   0.91455   0.92503   0.93038
 Alpha virt. eigenvalues --    0.93980   0.94638   0.95642   0.96122   0.96827
 Alpha virt. eigenvalues --    0.97253   0.98360   0.98673   0.98780   1.00401
 Alpha virt. eigenvalues --    1.00975   1.01434   1.02934   1.03287   1.04622
 Alpha virt. eigenvalues --    1.05621   1.06122   1.07436   1.09028   1.09734
 Alpha virt. eigenvalues --    1.12007   1.12701   1.13673   1.14534   1.15459
 Alpha virt. eigenvalues --    1.15986   1.16607   1.17551   1.18172   1.19698
 Alpha virt. eigenvalues --    1.21215   1.22429   1.23782   1.24564   1.25932
 Alpha virt. eigenvalues --    1.27071   1.28136   1.28825   1.29714   1.30338
 Alpha virt. eigenvalues --    1.30881   1.31725   1.34284   1.34580   1.36286
 Alpha virt. eigenvalues --    1.37337   1.38003   1.39077   1.40822   1.42244
 Alpha virt. eigenvalues --    1.42634   1.43025   1.43712   1.45103   1.46672
 Alpha virt. eigenvalues --    1.47753   1.49786   1.50787   1.51574   1.52891
 Alpha virt. eigenvalues --    1.53712   1.55446   1.57779   1.57933   1.59269
 Alpha virt. eigenvalues --    1.60033   1.60684   1.61958   1.63255   1.63935
 Alpha virt. eigenvalues --    1.64927   1.65615   1.67978   1.69472   1.70501
 Alpha virt. eigenvalues --    1.71335   1.73350   1.73967   1.75413   1.76349
 Alpha virt. eigenvalues --    1.79425   1.81614   1.83615   1.84685   1.85691
 Alpha virt. eigenvalues --    1.87276   1.87554   1.89626   1.90352   1.91214
 Alpha virt. eigenvalues --    1.94201   1.94825   1.96748   1.98655   1.99595
 Alpha virt. eigenvalues --    2.01510   2.03282   2.04786   2.05870   2.06421
 Alpha virt. eigenvalues --    2.07428   2.09465   2.11753   2.12854   2.13599
 Alpha virt. eigenvalues --    2.15857   2.17142   2.18606   2.20017   2.22229
 Alpha virt. eigenvalues --    2.24433   2.26659   2.27829   2.29657   2.31834
 Alpha virt. eigenvalues --    2.34476   2.35642   2.37411   2.41861   2.44553
 Alpha virt. eigenvalues --    2.45487   2.48820   2.52246   2.55818   2.58302
 Alpha virt. eigenvalues --    2.60871   2.61218   2.63212   2.67442   2.68331
 Alpha virt. eigenvalues --    2.74125   2.74298   2.77213   2.80168   2.81584
 Alpha virt. eigenvalues --    2.82678   2.84166   2.85401   2.89014   2.90206
 Alpha virt. eigenvalues --    2.92063   2.92692   2.95093   2.95874   2.98044
 Alpha virt. eigenvalues --    3.02007   3.05443   3.05760   3.08981   3.09565
 Alpha virt. eigenvalues --    3.10318   3.11273   3.12845   3.15245   3.16355
 Alpha virt. eigenvalues --    3.18505   3.18926   3.20795   3.23174   3.23702
 Alpha virt. eigenvalues --    3.25693   3.26912   3.30727   3.32069   3.33795
 Alpha virt. eigenvalues --    3.34265   3.35810   3.37647   3.40470   3.41909
 Alpha virt. eigenvalues --    3.44707   3.45778   3.46247   3.48463   3.51471
 Alpha virt. eigenvalues --    3.52488   3.55058   3.55960   3.56925   3.58288
 Alpha virt. eigenvalues --    3.59352   3.62807   3.65267   3.66296   3.68195
 Alpha virt. eigenvalues --    3.70600   3.70911   3.71763   3.73787   3.75133
 Alpha virt. eigenvalues --    3.76294   3.77252   3.78927   3.80480   3.82209
 Alpha virt. eigenvalues --    3.83918   3.86457   3.87489   3.89207   3.93049
 Alpha virt. eigenvalues --    3.93942   3.95085   3.96814   3.99443   4.01226
 Alpha virt. eigenvalues --    4.01619   4.03590   4.07579   4.09133   4.09923
 Alpha virt. eigenvalues --    4.12147   4.14196   4.16164   4.18808   4.21367
 Alpha virt. eigenvalues --    4.23589   4.26876   4.28273   4.30498   4.31776
 Alpha virt. eigenvalues --    4.33830   4.37250   4.38500   4.39836   4.42610
 Alpha virt. eigenvalues --    4.46654   4.49726   4.52870   4.58471   4.60111
 Alpha virt. eigenvalues --    4.61159   4.63439   4.63589   4.65165   4.70212
 Alpha virt. eigenvalues --    4.71241   4.73111   4.74384   4.74824   4.89117
 Alpha virt. eigenvalues --    4.89427   4.91521   4.92586   4.97113   5.04482
 Alpha virt. eigenvalues --    5.08425   5.11498   5.13045   5.19128   5.27338
 Alpha virt. eigenvalues --    5.30785   5.33024   5.42429   5.48672   5.55280
 Alpha virt. eigenvalues --    5.65664   5.68608   5.70153   5.84727   5.90427
 Alpha virt. eigenvalues --    5.97507   6.10065   6.12196   6.19995   6.22624
 Alpha virt. eigenvalues --    6.36117   6.37614   6.45137   6.53464   6.71578
 Alpha virt. eigenvalues --    6.77459   6.87141   7.00576   7.07696   7.13291
 Alpha virt. eigenvalues --    7.31481   7.57720   7.69897  13.57051  15.86446
 Alpha virt. eigenvalues --   16.28865  17.04309  17.51565  18.32117
 Entering OneElI...
 OneElI was handed939115871 working-precision words.
 Multipole integrals L=0 to 4 MinM= 0 MaxM= 0.
 Requested accuracy = 0.1000D-12
 PrsmSu:  NPrtUS=   1 ThrOK=F
 PRISM was handed   938143916 working-precision words and 11803 shell-pairs
 Electronic moments (au):
   -60.00000000     0.55339612     0.13927417     0.26490178
  -753.83662068  -163.12288340   -88.67526029    -0.41582773
    -2.15211456     0.53714278   242.43325854   -38.27811786
   -38.09831790  -232.36222495   113.54480294   370.68232353
    61.66009891   -20.31859703    -9.20558871    92.83096110
-16299.16927849 -1387.24431325  -515.14972929  -302.10143387
  -185.34258971    32.68444507    25.04130207   123.63148363
   -24.99474681 -1685.71996059 -1079.63236344  -230.44019642
    10.74849291    83.92034620     5.73505904
 Electronic spatial extent (au):  <R**2>=  1005.6348
 Nuclear    moments (au):
    60.00000000     0.00000000     0.00000000     0.00000000
   716.67322602   130.24103784    50.74387479     0.00000000
     0.00000000     0.00000000  -200.82838984    34.36801073
    47.44221192   233.01869378  -121.86509860  -378.02470274
   -66.27494862    17.44532872     6.91362664   -98.43758530
 13443.78091816   857.49757920   167.75754033   278.07685836
   155.47111017   -55.72191182   -26.55336816  -128.84165756
    20.35262708  1190.14423341   541.25053127    68.44799713
    -9.38412938   -88.11397870    -1.83709004
 Total      moments (au):
     0.00000000     0.55339612     0.13927417     0.26490178
   -37.16339465   -32.88184556   -37.93138550    -0.41582773
    -2.15211456     0.53714278    41.60486870    -3.91010713
     9.34389401     0.65646883    -8.32029566    -7.34237921
    -4.61484970    -2.87326831    -2.29196207    -5.60662420
 -2855.38836033  -529.74673405  -347.39218895   -24.02457551
   -29.87147954   -23.03746675    -1.51206610    -5.21017393
    -4.64211973  -495.57572718  -538.38183218  -161.99219929
     1.36436353    -4.19363249     3.89796900
 Charge=     0.0000 electrons
 Dipole moment (field-independent basis, Debye):
    X=     1.4066    Y=     0.3540    Z=     0.6733  Tot=     1.5991
 Quadrupole moment (field-independent basis, Debye-Ang):
   XX=   -49.9860   YY=   -44.2272   ZZ=   -51.0190
   XY=    -0.5593   XZ=    -2.8947   YZ=     0.7225
 Traceless Quadrupole moment (field-independent basis, Debye-Ang):
   XX=    -1.5753   YY=     4.1835   ZZ=    -2.6083
   XY=    -0.5593   XZ=    -2.8947   YZ=     0.7225
 Octapole moment (field-independent basis, Debye-Ang**2):
  XXX=    29.6127  YYY=    -2.7831  ZZZ=     6.6506  XYY=     0.4672
  XXY=    -5.9221  XXZ=    -5.2260  XZZ=    -3.2847  YZZ=    -2.0451
  YYZ=    -1.6313  XYZ=    -3.9906
 Hexadecapole moment (field-independent basis, Debye-Ang**3):
 XXXX= -1075.4761 YYYY=  -199.5280 ZZZZ=  -130.8445 XXXY=    -9.0488
 XXXZ=   -11.2510 YYYX=    -8.6770 YYYZ=    -0.5695 ZZZX=    -1.9624
 ZZZY=    -1.7484 XXYY=  -186.6576 XXZZ=  -202.7804 YYZZ=   -61.0140
 XXYZ=     0.5139 YYXZ=    -1.5795 ZZXY=     1.4682
 N-N= 3.390808183584D+02 E-N=-2.251957574539D+03  KE= 6.648056130070D+02
 Entering OneElI...
 OneElI was handed938609265 working-precision words.
 Calculate electrostatic properties
    NBasis =   464  MinDer = 0  MaxDer = 0
    NGrid  =    13  NMatD  =   1
 Requested accuracy = 0.1000D-12
 PrsmSu:  NPrtUS=   8 ThrOK=T
 PRISM was handed   116973612 working-precision words and 11605 shell-pairs
 PRISM was handed   116973612 working-precision words and 11605 shell-pairs
 PRISM was handed   116973612 working-precision words and 11605 shell-pairs
 PRISM was handed   116973612 working-precision words and 11605 shell-pairs
 PRISM was handed   116973612 working-precision words and 11605 shell-pairs
 PRISM was handed   116973612 working-precision words and 11605 shell-pairs
 PRISM was handed   116973612 working-precision words and 11605 shell-pairs
 PRISM was handed   116973612 working-precision words and 11605 shell-pairs
 --------------------------------------------------------
       Center         ----      EFG at Nuclei      ----
                      3XX-RR        3YY-RR        3ZZ-RR
 --------------------------------------------------------
     1   Atom       -0.693515      0.031989      0.661526
     2   Atom       -0.287483      0.348810     -0.061326
     3   Atom        0.058311      0.120857     -0.179168
     4   Atom        0.064394      0.100167     -0.164562
     5   Atom        0.181661     -0.212029      0.030368
     6   Atom        0.025415     -0.191590      0.166175
     7   Atom       -0.200938      0.098561      0.102377
     8   Atom        0.140162     -0.293294      0.153132
     9   Atom       -0.097193      0.124570     -0.027377
    10   Atom        0.503830     -1.467543      0.963714
    11   Atom        0.127227      0.057015     -0.184241
    12   Atom        0.120996     -0.263204      0.142208
    13   Atom        0.087882     -0.202045      0.114162
 --------------------------------------------------------
                        XY            XZ            YZ
 --------------------------------------------------------
     1   Atom        0.909072      0.338849     -0.178740
     2   Atom       -0.029612      0.093679     -0.061107
     3   Atom        0.011125     -0.099104     -0.068865
     4   Atom        0.011386     -0.087801     -0.055246
     5   Atom        0.224977     -0.121426     -0.044925
     6   Atom        0.195347      0.014835     -0.001224
     7   Atom       -0.126456      0.149672      0.055648
     8   Atom        0.052004     -0.000463      0.066248
     9   Atom       -0.079680     -0.157625     -0.118333
    10   Atom       -0.199459     -1.862214     -0.982975
    11   Atom       -0.031922      0.060289      0.169884
    12   Atom        0.084341      0.006893     -0.044409
    13   Atom        0.082005     -0.020841      0.004154
 --------------------------------------------------------


 ---------------------------------------------------------------------------------
              Nuclear Quadrupole in Principal Axis System
 ---------------------------------------------------------------------------------

       Atom             a.u.   MegaHertz   Gauss  10(-4) cm-1        Axes

              Baa    -1.3806    99.897    35.646    33.322  0.8159 -0.5483 -0.1834
     1 O(17)  Bbb     0.6311   -45.668   -16.296   -15.233  0.4591  0.8072 -0.3710
              Bcc     0.7494   -54.229   -19.350   -18.089  0.3514  0.2185  0.9104
 
              Baa    -0.3213   -43.119   -15.386   -14.383  0.9416  0.0109 -0.3367
     2 C(13)  Bbb    -0.0393    -5.275    -1.882    -1.759  0.3300  0.1713  0.9283
              Bcc     0.3606    48.393    17.268    16.142 -0.0678  0.9852 -0.1577
 
              Baa    -0.2259   -30.316   -10.817   -10.112  0.3181  0.1748  0.9318
     3 C(13)  Bbb     0.0747    10.026     3.577     3.344  0.8460 -0.4960 -0.1957
              Bcc     0.1512    20.290     7.240     6.768  0.4280  0.8505 -0.3057
 
              Baa    -0.2023   -27.141    -9.684    -9.053  0.3025  0.1602  0.9396
     4 C(13)  Bbb     0.0721     9.680     3.454     3.229  0.7803 -0.6078 -0.1476
              Bcc     0.1301    17.461     6.231     5.824  0.5474  0.7778 -0.3089
 
              Baa    -0.3144   -42.188   -15.054   -14.072 -0.4188  0.9076 -0.0292
     5 C(13)  Bbb    -0.0236    -3.166    -1.130    -1.056  0.3404  0.1868  0.9215
              Bcc     0.3380    45.355    16.184    15.129  0.8418  0.3760 -0.3872
 
              Baa    -0.3067  -163.641   -58.391   -54.585 -0.5075  0.8615  0.0182
     6 H(1)   Bbb     0.1356    72.329    25.809    24.127  0.7979  0.4778 -0.3676
              Bcc     0.1711    91.311    32.582    30.458  0.3253  0.1721  0.9298
 
              Baa    -0.3091  -164.947   -58.857   -55.020  0.8753  0.3209 -0.3617
     7 H(1)   Bbb     0.1448    77.247    27.564    25.767 -0.3576  0.9331 -0.0376
              Bcc     0.1644    87.699    31.293    29.253  0.3255  0.1622  0.9315
 
              Baa    -0.3088  -164.779   -58.797   -54.964 -0.1140  0.9834 -0.1411
     8 H(1)   Bbb     0.1435    76.589    27.329    25.547  0.9338  0.0576 -0.3531
              Bcc     0.1653    88.190    31.468    29.417  0.3391  0.1721  0.9249
 
              Baa    -0.2712   -36.391   -12.985   -12.139  0.7123  0.3288  0.6201
     9 C(13)  Bbb     0.0818    10.976     3.916     3.661  0.7011 -0.3737 -0.6072
              Bcc     0.1894    25.416     9.069     8.478  0.0321  0.8673 -0.4968
 
              Baa    -2.1686   -88.909   -31.725   -29.657  0.3929  0.7845  0.4798
    10 S(33)  Bbb    -0.5328   -21.845    -7.795    -7.287  0.6686 -0.6019  0.4367
              Bcc     2.7014   110.754    39.520    36.944 -0.6313 -0.1492  0.7610
 
              Baa    -0.2833  -151.157   -53.937   -50.421 -0.1639 -0.4529  0.8764
    11 H(1)   Bbb     0.1385    73.889    26.365    24.647  0.9805  0.0229  0.1952
              Bcc     0.1448    77.268    27.571    25.774 -0.1085  0.8913  0.4403
 
              Baa    -0.2856  -152.388   -54.376   -50.831 -0.2037  0.9735  0.1043
    12 H(1)   Bbb     0.1381    73.665    26.286    24.572  0.9512  0.1716  0.2564
              Bcc     0.1475    78.723    28.090    26.259 -0.2316 -0.1515  0.9609
 
              Baa    -0.2239  -119.457   -42.625   -39.847 -0.2560  0.9663 -0.0277
    13 H(1)   Bbb     0.0927    49.458    17.648    16.497  0.7215  0.2100  0.6598
              Bcc     0.1312    69.999    24.977    23.349 -0.6434 -0.1490  0.7509
 

 ---------------------------------------------------------------------------------

 No NMR shielding tensors so no spin-rotation constants.
 Leave Link  601 at Sat Nov 12 01:44:49 2011, MaxMem=  939524096 cpu:       4.8
 (Enter /pdc/vol/gaussian/G03RevD.01/g03/l602.exe)
 Merz-Kollman atomic radii used.
 Read replacement radii for each type of atom:
 Rad(19) =   2.800000000000D+00
 Rad(20) =   2.400000000000D+00
 Rad(31) =   2.100000000000D+00
 Rad(32) =   2.100000000000D+00
 Rad(33) =   2.050000000000D+00
 Rad(34) =   1.900000000000D+00
 Rad(37) =   2.900000000000D+00
 Rad(40) =   2.300000000000D+00
 Rad(39) =   2.400000000000D+00
 Rad(47) =   2.100000000000D+00
 Rad(29) =   2.000000000000D+00
 Rad(30) =   2.100000000000D+00
 Rad(24) =   2.050000000000D+00
 Rad(55) =   3.000000000000D+00
 Rad(56) =   2.700000000000D+00
 Rad(57) =   2.500000000000D+00
 Rad(52) =   2.100000000000D+00
 Rad(80) =   2.050000000000D+00
 Rad(22) =   2.150000000000D+00
 Rad(23) =   2.050000000000D+00
 Rad(25) =   2.050000000000D+00
 Rad(28) =   2.000000000000D+00
 Rad(30) =   2.100000000000D+00
 Rad(21) =   2.300000000000D+00
 Rad(51) =   2.200000000000D+00
 Rad(82) =   2.300000000000D+00
 Rad(50) =   2.250000000000D+00
 Rad(49) =   2.200000000000D+00
 Rad(26) =   2.050000000000D+00
 Rad(38) =   2.550000000000D+00
 Rad(81) =   2.400000000000D+00
 Rad(53) =   2.100000000000D+00
 Rad(2) =   1.400000000000D+00
 Rad(10) =   1.540000000000D+00
 Rad(18) =   1.880000000000D+00
 Rad(36) =   2.020000000000D+00
 Atom Element Radius
    1     8    1.40
    2     6    1.50
    3     6    1.50
    4     6    1.50
    5     6    1.50
    6     1    1.20
    7     1    1.20
    8     1    1.20
    9     6    1.50
   10    16    1.75
   11     1    1.20
   12     1    1.20
   13     1    1.20
 Generate VDW surfaces: Layer= 4 Dens= 6 Start= 1.400 Inc= 0.200

 **********************************************************************

            Electrostatic Properties Using The SCF Density

 **********************************************************************

       Atomic Center    1 is at   0.803076 -0.959195  0.381626
       Atomic Center    2 is at   2.083733 -0.894686 -0.079872
       Atomic Center    3 is at   2.397525  0.378039 -0.419021
       Atomic Center    4 is at   1.229599  1.160502 -0.153846
       Atomic Center    5 is at   0.289210  0.306984  0.329385
       Atomic Center    6 is at   2.625516 -1.822543 -0.097697
       Atomic Center    7 is at   3.340250  0.720853 -0.808283
       Atomic Center    8 is at   1.105834  2.218763 -0.306122
       Atomic Center    9 is at  -1.107900  0.477251  0.773986
       Atomic Center   10 is at  -2.388133 -0.131825 -0.424140
       Atomic Center   11 is at  -1.281183 -0.011491  1.730691
       Atomic Center   12 is at  -1.327142  1.535798  0.889813
       Atomic Center   13 is at  -2.030758 -1.427172 -0.378971
      ESP Fit Center   14 is at   0.803076 -0.959195  2.341626
      ESP Fit Center   15 is at   1.210583 -0.959195  2.298795
      ESP Fit Center   16 is at   1.006830 -0.606283  2.298795
      ESP Fit Center   17 is at   0.599323 -0.606283  2.298795
      ESP Fit Center   18 is at   0.395569 -0.959195  2.298795
      ESP Fit Center   19 is at   0.599323 -1.312106  2.298795
      ESP Fit Center   20 is at   1.006830 -1.312106  2.298795
      ESP Fit Center   21 is at   1.600280 -0.959195  2.172175
      ESP Fit Center   22 is at   1.493475 -0.560593  2.172175
      ESP Fit Center   23 is at   1.201678 -0.268796  2.172175
      ESP Fit Center   24 is at   0.112678 -1.357797  2.172175
      ESP Fit Center   25 is at   0.404474 -1.649594  2.172175
      ESP Fit Center   26 is at   0.803076 -1.756399  2.172175
      ESP Fit Center   27 is at   1.201678 -1.649594  2.172175
      ESP Fit Center   28 is at   1.493475 -1.357797  2.172175
      ESP Fit Center   29 is at   1.654458 -0.183058  1.967299
      ESP Fit Center   30 is at  -0.176424 -1.565676  1.967299
      ESP Fit Center   31 is at   0.108806 -1.878558  1.967299
      ESP Fit Center   32 is at   0.487800 -2.067275  1.967299
      ESP Fit Center   33 is at   0.909375 -2.106339  1.967299
      ESP Fit Center   34 is at   1.316593 -1.990476  1.967299
      ESP Fit Center   35 is at   1.654458 -1.735332  1.967299
      ESP Fit Center   36 is at   1.877339 -1.375367  1.967299
      ESP Fit Center   37 is at  -0.422263 -1.746673  1.693122
      ESP Fit Center   38 is at  -0.150770 -2.059992  1.693122
      ESP Fit Center   39 is at   0.197998 -2.284132  1.693122
      ESP Fit Center   40 is at   0.595786 -2.400933  1.693122
      ESP Fit Center   41 is at   1.010367 -2.400933  1.693122
      ESP Fit Center   42 is at   1.408155 -2.284132  1.693122
      ESP Fit Center   43 is at   1.756923 -2.059992  1.693122
      ESP Fit Center   44 is at  -0.775135 -1.584053  1.361626
      ESP Fit Center   45 is at  -0.570157 -1.956907  1.361626
      ESP Fit Center   46 is at  -0.278893 -2.267071  1.361626
      ESP Fit Center   47 is at   0.080354 -2.495057  1.361626
      ESP Fit Center   48 is at   0.485013 -2.626539  1.361626
      ESP Fit Center   49 is at   0.909658 -2.653255  1.361626
      ESP Fit Center   50 is at   1.327605 -2.573527  1.361626
      ESP Fit Center   51 is at   1.712594 -2.392365  1.361626
      ESP Fit Center   52 is at  -0.876393 -1.767985  0.987299
      ESP Fit Center   53 is at  -0.654313 -2.121424  0.987299
      ESP Fit Center   54 is at  -0.359153 -2.416584  0.987299
      ESP Fit Center   55 is at  -0.005714 -2.638664  0.987299
      ESP Fit Center   56 is at   0.388282 -2.776529  0.987299
      ESP Fit Center   57 is at   0.803076 -2.823266  0.987299
      ESP Fit Center   58 is at   1.217871 -2.776529  0.987299
      ESP Fit Center   59 is at  -0.612080 -2.299702  0.586502
      ESP Fit Center   60 is at  -0.290825 -2.572578  0.586502
      ESP Fit Center   61 is at   0.081580 -2.770015  0.586502
      ESP Fit Center   62 is at   0.487721 -2.882779  0.586502
      ESP Fit Center   63 is at   0.908607 -2.905599  0.586502
      ESP Fit Center   64 is at   1.324559 -2.837407  0.586502
      ESP Fit Center   65 is at  -0.612080 -2.299702  0.176750
      ESP Fit Center   66 is at  -0.290825 -2.572578  0.176750
      ESP Fit Center   67 is at   0.081580 -2.770015  0.176750
      ESP Fit Center   68 is at   0.487721 -2.882779  0.176750
      ESP Fit Center   69 is at   0.908607 -2.905599  0.176750
      ESP Fit Center   70 is at  -0.359153 -2.416584 -0.224047
      ESP Fit Center   71 is at  -0.005714 -2.638664 -0.224047
      ESP Fit Center   72 is at   0.388282 -2.776529 -0.224047
      ESP Fit Center   73 is at   0.803076 -2.823266 -0.224047
      ESP Fit Center   74 is at  -0.278893 -2.267071 -0.598374
      ESP Fit Center   75 is at   0.080354 -2.495057 -0.598374
      ESP Fit Center   76 is at   0.485013 -2.626539 -0.598374
      ESP Fit Center   77 is at   0.909658 -2.653255 -0.598374
      ESP Fit Center   78 is at  -0.422263 -1.746673 -0.929870
      ESP Fit Center   79 is at  -0.150770 -2.059992 -0.929870
      ESP Fit Center   80 is at   0.197998 -2.284132 -0.929870
      ESP Fit Center   81 is at   0.595786 -2.400933 -0.929870
      ESP Fit Center   82 is at  -0.176424 -1.565676 -1.204047
      ESP Fit Center   83 is at   0.108806 -1.878558 -1.204047
      ESP Fit Center   84 is at   0.487800 -2.067275 -1.204047
      ESP Fit Center   85 is at   0.005872 -0.959195 -1.408923
      ESP Fit Center   86 is at   0.112678 -1.357797 -1.408923
      ESP Fit Center   87 is at   0.404474 -1.649594 -1.408923
      ESP Fit Center   88 is at   0.395569 -0.959195 -1.535543
      ESP Fit Center   89 is at   0.599323 -1.312106 -1.535543
      ESP Fit Center   90 is at   2.083733 -0.894686  2.020128
      ESP Fit Center   91 is at   2.493423 -0.894686  1.979778
      ESP Fit Center   92 is at   2.288578 -0.539884  1.979778
      ESP Fit Center   93 is at   1.878888 -0.539884  1.979778
      ESP Fit Center   94 is at   2.288578 -1.249487  1.979778
      ESP Fit Center   95 is at   2.887368 -0.894686  1.860275
      ESP Fit Center   96 is at   2.779702 -0.492868  1.860275
      ESP Fit Center   97 is at   2.485551 -0.198717  1.860275
      ESP Fit Center   98 is at   2.083733 -0.091050  1.860275
      ESP Fit Center   99 is at   2.083733 -1.698321  1.860275
      ESP Fit Center  100 is at   2.485551 -1.590654  1.860275
      ESP Fit Center  101 is at   2.779702 -1.296503  1.860275
      ESP Fit Center  102 is at   3.250431 -0.894686  1.666215
      ESP Fit Center  103 is at   3.171646 -0.473226  1.666215
      ESP Fit Center  104 is at   2.945933 -0.108687  1.666215
      ESP Fit Center  105 is at   2.603775  0.149699  1.666215
      ESP Fit Center  106 is at   2.191383 -2.056406  1.666215
      ESP Fit Center  107 is at   2.603775 -1.939070  1.666215
      ESP Fit Center  108 is at   2.945933 -1.680685  1.666215
      ESP Fit Center  109 is at   3.171646 -1.316145  1.666215
      ESP Fit Center  110 is at   3.568658 -0.894686  1.405053
      ESP Fit Center  111 is at   3.508508 -0.476334  1.405053
      ESP Fit Center  112 is at   3.332931 -0.091875  1.405053
      ESP Fit Center  113 is at   1.872407 -2.364496  1.405053
      ESP Fit Center  114 is at   3.508508 -1.313037  1.405053
      ESP Fit Center  115 is at   3.829819 -0.894686  1.086826
      ESP Fit Center  116 is at   3.779081 -0.476820  1.086826
      ESP Fit Center  117 is at   3.779081 -1.312551  1.086826
      ESP Fit Center  118 is at   4.023880 -0.894686  0.723764
      ESP Fit Center  119 is at   3.978521 -0.477611  0.723764
      ESP Fit Center  120 is at   4.143382 -0.894686  0.329818
      ESP Fit Center  121 is at   4.183733 -0.894686 -0.079872
      ESP Fit Center  122 is at   1.280098 -2.834833 -0.079872
      ESP Fit Center  123 is at   4.143382 -0.894686 -0.489561
      ESP Fit Center  124 is at   1.176676 -2.743848 -0.489561
      ESP Fit Center  125 is at   4.023880 -0.894686 -0.883507
      ESP Fit Center  126 is at   0.994948 -2.500524 -0.883507
      ESP Fit Center  127 is at   1.365611 -2.697037 -0.883507
      ESP Fit Center  128 is at   0.776769 -2.052555 -1.246569
      ESP Fit Center  129 is at   1.091843 -2.331686 -1.246569
      ESP Fit Center  130 is at   1.464563 -2.527305 -1.246569
      ESP Fit Center  131 is at   3.779081 -1.312551 -1.246569
      ESP Fit Center  132 is at   0.658959 -1.313037 -1.564796
      ESP Fit Center  133 is at   0.834536 -1.697496 -1.564796
      ESP Fit Center  134 is at   1.111315 -2.016917 -1.564796
      ESP Fit Center  135 is at   1.466873 -2.245420 -1.564796
      ESP Fit Center  136 is at   1.872407 -2.364496 -1.564796
      ESP Fit Center  137 is at   3.508508 -1.313037 -1.564796
      ESP Fit Center  138 is at   0.936901 -0.680306 -1.825958
      ESP Fit Center  139 is at   0.936901 -1.109066 -1.825958
      ESP Fit Center  140 is at   1.091787 -1.508873 -1.825958
      ESP Fit Center  141 is at   1.380641 -1.825730 -1.825958
      ESP Fit Center  142 is at   1.764451 -2.016845 -1.825958
      ESP Fit Center  143 is at   2.191383 -2.056406 -1.825958
      ESP Fit Center  144 is at   2.603775 -1.939070 -1.825958
      ESP Fit Center  145 is at   2.945933 -1.680685 -1.825958
      ESP Fit Center  146 is at   3.171646 -1.316145 -1.825958
      ESP Fit Center  147 is at   2.887368 -0.894686 -2.020019
      ESP Fit Center  148 is at   1.280098 -0.894686 -2.020019
      ESP Fit Center  149 is at   1.387765 -1.296503 -2.020019
      ESP Fit Center  150 is at   1.681916 -1.590654 -2.020019
      ESP Fit Center  151 is at   2.083733 -1.698321 -2.020019
      ESP Fit Center  152 is at   2.485551 -1.590654 -2.020019
      ESP Fit Center  153 is at   2.779702 -1.296503 -2.020019
      ESP Fit Center  154 is at   2.493423 -0.894686 -2.139521
      ESP Fit Center  155 is at   1.674044 -0.894686 -2.139521
      ESP Fit Center  156 is at   1.878888 -1.249487 -2.139521
      ESP Fit Center  157 is at   2.288578 -1.249487 -2.139521
      ESP Fit Center  158 is at   2.083733 -0.894686 -2.179872
      ESP Fit Center  159 is at   2.397525  0.378039  1.680979
      ESP Fit Center  160 is at   2.807215  0.378039  1.640628
      ESP Fit Center  161 is at   2.602370  0.732841  1.640628
      ESP Fit Center  162 is at   3.201160  0.378039  1.521126
      ESP Fit Center  163 is at   3.093494  0.779857  1.521126
      ESP Fit Center  164 is at   2.799343  1.074008  1.521126
      ESP Fit Center  165 is at   3.564223  0.378039  1.327065
      ESP Fit Center  166 is at   3.485438  0.799499  1.327065
      ESP Fit Center  167 is at   3.259725  1.164038  1.327065
      ESP Fit Center  168 is at   2.917567  1.422424  1.327065
      ESP Fit Center  169 is at   3.485438 -0.043421  1.327065
      ESP Fit Center  170 is at   3.882449  0.378039  1.065903
      ESP Fit Center  171 is at   3.822299  0.796391  1.065903
      ESP Fit Center  172 is at   3.646723  1.180850  1.065903
      ESP Fit Center  173 is at   3.369944  1.500270  1.065903
      ESP Fit Center  174 is at   3.014385  1.728774  1.065903
      ESP Fit Center  175 is at   3.822299 -0.040312  1.065903
      ESP Fit Center  176 is at   4.143611  0.378039  0.747677
      ESP Fit Center  177 is at   4.092873  0.795905  0.747677
      ESP Fit Center  178 is at   3.943608  1.189486  0.747677
      ESP Fit Center  179 is at   3.704489  1.535908  0.747677
      ESP Fit Center  180 is at   3.389415  1.815040  0.747677
      ESP Fit Center  181 is at   3.016696  2.010658  0.747677
      ESP Fit Center  182 is at   4.092873 -0.039827  0.747677
      ESP Fit Center  183 is at   3.306306  2.092182  0.384614
      ESP Fit Center  184 is at   4.158355 -0.436607  0.384614
      ESP Fit Center  185 is at   4.292312 -0.039035  0.384614
      ESP Fit Center  186 is at   3.112852  2.309480 -0.009331
      ESP Fit Center  187 is at   4.290256 -0.434195 -0.009331
      ESP Fit Center  188 is at   4.088010 -0.798573 -0.828710
      ESP Fit Center  189 is at   3.942063 -0.796088 -1.222656
      ESP Fit Center  190 is at   2.607992  2.111394 -1.585718
      ESP Fit Center  191 is at   3.704489 -0.779830 -1.585718
      ESP Fit Center  192 is at   2.608852  1.847849 -1.903945
      ESP Fit Center  193 is at   2.186198  1.847849 -1.903945
      ESP Fit Center  194 is at   0.972751 -0.040312 -1.903945
      ESP Fit Center  195 is at   1.148327 -0.424771 -1.903945
      ESP Fit Center  196 is at   3.369944 -0.744192 -1.903945
      ESP Fit Center  197 is at   2.505174  1.539760 -2.165107
      ESP Fit Center  198 is at   2.078243  1.500199 -2.165107
      ESP Fit Center  199 is at   1.250693  0.163659 -2.165107
      ESP Fit Center  200 is at   1.405579 -0.236148 -2.165107
      ESP Fit Center  201 is at   1.694433 -0.553006 -2.165107
      ESP Fit Center  202 is at   2.505174 -0.783681 -2.165107
      ESP Fit Center  203 is at   2.917567 -0.666346 -2.165107
      ESP Fit Center  204 is at   3.259725 -0.407960 -2.165107
      ESP Fit Center  205 is at   2.799343  1.074008 -2.359168
      ESP Fit Center  206 is at   2.397525  1.181674 -2.359168
      ESP Fit Center  207 is at   1.995707  1.074008 -2.359168
      ESP Fit Center  208 is at   1.701557  0.779857 -2.359168
      ESP Fit Center  209 is at   1.593890  0.378039 -2.359168
      ESP Fit Center  210 is at   1.701557 -0.023778 -2.359168
      ESP Fit Center  211 is at   1.995707 -0.317929 -2.359168
      ESP Fit Center  212 is at   2.397525 -0.425596 -2.359168
      ESP Fit Center  213 is at   2.799343 -0.317929 -2.359168
      ESP Fit Center  214 is at   3.093494 -0.023778 -2.359168
      ESP Fit Center  215 is at   2.807215  0.378039 -2.478670
      ESP Fit Center  216 is at   2.602370  0.732841 -2.478670
      ESP Fit Center  217 is at   2.192680  0.732841 -2.478670
      ESP Fit Center  218 is at   1.987835  0.378039 -2.478670
      ESP Fit Center  219 is at   2.192680  0.023238 -2.478670
      ESP Fit Center  220 is at   2.602370  0.023238 -2.478670
      ESP Fit Center  221 is at   2.397525  0.378039 -2.519021
      ESP Fit Center  222 is at   1.639289  1.160502  1.905803
      ESP Fit Center  223 is at   1.434444  1.515304  1.905803
      ESP Fit Center  224 is at   1.024754  1.515304  1.905803
      ESP Fit Center  225 is at   2.033235  1.160502  1.786301
      ESP Fit Center  226 is at   1.925568  1.562320  1.786301
      ESP Fit Center  227 is at   1.631417  1.856471  1.786301
      ESP Fit Center  228 is at   1.229599  1.964137  1.786301
      ESP Fit Center  229 is at   0.827782  1.856471  1.786301
      ESP Fit Center  230 is at   1.925568  0.758685  1.786301
      ESP Fit Center  231 is at   2.396297  1.160502  1.592240
      ESP Fit Center  232 is at   2.317512  1.581962  1.592240
      ESP Fit Center  233 is at   2.091799  1.946501  1.592240
      ESP Fit Center  234 is at   1.749641  2.204887  1.592240
      ESP Fit Center  235 is at   1.337249  2.322223  1.592240
      ESP Fit Center  236 is at   0.910317  2.282662  1.592240
      ESP Fit Center  237 is at   0.526507  2.091547  1.592240
      ESP Fit Center  238 is at   2.654374  1.578854  1.331078
      ESP Fit Center  239 is at   2.478797  1.963313  1.331078
      ESP Fit Center  240 is at   2.202018  2.282733  1.331078
      ESP Fit Center  241 is at   1.846459  2.511237  1.331078
      ESP Fit Center  242 is at   1.440926  2.630312  1.331078
      ESP Fit Center  243 is at   1.018273  2.630312  1.331078
      ESP Fit Center  244 is at   0.612739  2.511237  1.331078
      ESP Fit Center  245 is at   0.257181  2.282733  1.331078
      ESP Fit Center  246 is at   2.775682  1.971949  1.012851
      ESP Fit Center  247 is at   2.536564  2.318371  1.012851
      ESP Fit Center  248 is at   2.221489  2.597503  1.012851
      ESP Fit Center  249 is at   2.774137  2.334629  0.649789
      ESP Fit Center  250 is at   2.485624  2.639209  0.649789
      ESP Fit Center  251 is at   2.920084  2.337114  0.255844
      ESP Fit Center  252 is at   2.648629  2.653321  0.255844
      ESP Fit Center  253 is at  -0.571248  2.160054 -0.563536
      ESP Fit Center  254 is at  -0.608987  1.779994 -0.957481
      ESP Fit Center  255 is at   2.536564  2.318371 -1.320544
      ESP Fit Center  256 is at  -0.316483  1.971949 -1.320544
      ESP Fit Center  257 is at  -0.465749  1.578368 -1.320544
      ESP Fit Center  258 is at   2.202018  2.282733 -1.638770
      ESP Fit Center  259 is at  -0.019598  1.963313 -1.638770
      ESP Fit Center  260 is at  -0.195175  1.578854 -1.638770
      ESP Fit Center  261 is at  -0.255325  1.160502 -1.638770
      ESP Fit Center  262 is at   2.091799  1.946501 -1.899932
      ESP Fit Center  263 is at   1.749641  2.204887 -1.899932
      ESP Fit Center  264 is at   0.526507  2.091547 -1.899932
      ESP Fit Center  265 is at   0.237653  1.774689 -1.899932
      ESP Fit Center  266 is at   0.082767  1.374882 -1.899932
      ESP Fit Center  267 is at   0.082767  0.946122 -1.899932
      ESP Fit Center  268 is at   0.237653  0.546315 -1.899932
      ESP Fit Center  269 is at   0.526507  0.229457 -1.899932
      ESP Fit Center  270 is at   0.910317  0.038343 -1.899932
      ESP Fit Center  271 is at   1.925568  1.562320 -2.093993
      ESP Fit Center  272 is at   1.631417  1.856471 -2.093993
      ESP Fit Center  273 is at   1.229599  1.964137 -2.093993
      ESP Fit Center  274 is at   0.827782  1.856471 -2.093993
      ESP Fit Center  275 is at   0.533631  1.562320 -2.093993
      ESP Fit Center  276 is at   0.425964  1.160502 -2.093993
      ESP Fit Center  277 is at   0.533631  0.758685 -2.093993
      ESP Fit Center  278 is at   0.827782  0.464534 -2.093993
      ESP Fit Center  279 is at   1.434444  1.515304 -2.213495
      ESP Fit Center  280 is at   1.024754  1.515304 -2.213495
      ESP Fit Center  281 is at   0.819910  1.160502 -2.213495
      ESP Fit Center  282 is at   1.024754  0.805700 -2.213495
      ESP Fit Center  283 is at   1.229599  1.160502 -2.253846
      ESP Fit Center  284 is at   0.289210  0.306984  2.429385
      ESP Fit Center  285 is at   0.698899  0.306984  2.389034
      ESP Fit Center  286 is at   0.494055  0.661786  2.389034
      ESP Fit Center  287 is at   0.494055 -0.047817  2.389034
      ESP Fit Center  288 is at   1.092845  0.306984  2.269532
      ESP Fit Center  289 is at   0.985178  0.708802  2.269532
      ESP Fit Center  290 is at   0.691027  1.002953  2.269532
      ESP Fit Center  291 is at   0.289210  1.110620  2.269532
      ESP Fit Center  292 is at   0.289210 -0.496651  2.269532
      ESP Fit Center  293 is at   0.691027 -0.388984  2.269532
      ESP Fit Center  294 is at   0.985178 -0.094833  2.269532
      ESP Fit Center  295 is at   1.455907  0.306984  2.075471
      ESP Fit Center  296 is at   1.377123  0.728444  2.075471
      ESP Fit Center  297 is at   1.151410  1.092983  2.075471
      ESP Fit Center  298 is at   0.809251  1.351369  2.075471
      ESP Fit Center  299 is at   0.396859  1.468705  2.075471
      ESP Fit Center  300 is at   1.377123 -0.114475  2.075471
      ESP Fit Center  301 is at   1.774134  0.306984  1.814309
      ESP Fit Center  302 is at   0.500536  1.776794  1.814309
      ESP Fit Center  303 is at  -0.030072 -0.815175 -1.416701
      ESP Fit Center  304 is at  -0.406759  0.708802 -1.610762
      ESP Fit Center  305 is at  -0.112608 -0.388984 -1.610762
      ESP Fit Center  306 is at   0.289210 -0.496651 -1.610762
      ESP Fit Center  307 is at   0.691027 -0.388984 -1.610762
      ESP Fit Center  308 is at  -0.120480  0.306984 -1.730264
      ESP Fit Center  309 is at   0.084365 -0.047817 -1.730264
      ESP Fit Center  310 is at   0.494055 -0.047817 -1.730264
      ESP Fit Center  311 is at   2.842924 -2.199104  1.525059
      ESP Fit Center  312 is at   3.465516 -1.822543  1.357226
      ESP Fit Center  313 is at   2.205516 -2.550004  1.357226
      ESP Fit Center  314 is at   2.625516 -2.662543  1.357226
      ESP Fit Center  315 is at   3.045516 -2.550004  1.357226
      ESP Fit Center  316 is at   3.352977 -2.242543  1.357226
      ESP Fit Center  317 is at   3.813455 -1.822543  1.090243
      ESP Fit Center  318 is at   1.909623 -2.770539  1.090243
      ESP Fit Center  319 is at   2.300421 -2.965133  1.090243
      ESP Fit Center  320 is at   2.735125 -3.005415  1.090243
      ESP Fit Center  321 is at   3.155026 -2.885943  1.090243
      ESP Fit Center  322 is at   3.503414 -2.622852  1.090243
      ESP Fit Center  323 is at   3.733237 -2.251676  1.090243
      ESP Fit Center  324 is at   4.080439 -1.822543  0.742303
      ESP Fit Center  325 is at   4.015801 -1.393697  0.742303
      ESP Fit Center  326 is at   1.558982 -2.812142  0.742303
      ESP Fit Center  327 is at   1.898055 -3.082543  0.742303
      ESP Fit Center  328 is at   2.301765 -3.240988  0.742303
      ESP Fit Center  329 is at   2.734243 -3.273397  0.742303
      ESP Fit Center  330 is at   3.157059 -3.176892  0.742303
      ESP Fit Center  331 is at   3.532645 -2.960047  0.742303
      ESP Fit Center  332 is at   3.827630 -2.642130  0.742303
      ESP Fit Center  333 is at   4.015801 -2.251389  0.742303
      ESP Fit Center  334 is at   4.248271 -1.822543  0.337119
      ESP Fit Center  335 is at   4.192977 -1.402543  0.337119
      ESP Fit Center  336 is at   1.478055 -2.970004  0.337119
      ESP Fit Center  337 is at   1.814138 -3.227890  0.337119
      ESP Fit Center  338 is at   2.205516 -3.390004  0.337119
      ESP Fit Center  339 is at   2.625516 -3.445298  0.337119
      ESP Fit Center  340 is at   3.045516 -3.390004  0.337119
      ESP Fit Center  341 is at   3.436894 -3.227890  0.337119
      ESP Fit Center  342 is at   3.772977 -2.970004  0.337119
      ESP Fit Center  343 is at   4.030863 -2.633920  0.337119
      ESP Fit Center  344 is at   4.192977 -2.242543  0.337119
      ESP Fit Center  345 is at   4.305516 -1.822543 -0.097697
      ESP Fit Center  346 is at   4.252736 -1.404744 -0.097697
      ESP Fit Center  347 is at   1.554644 -3.117005 -0.097697
      ESP Fit Center  348 is at   1.910207 -3.342652 -0.097697
      ESP Fit Center  349 is at   2.310715 -3.472785 -0.097697
      ESP Fit Center  350 is at   2.731004 -3.499228 -0.097697
      ESP Fit Center  351 is at   3.144665 -3.420318 -0.097697
      ESP Fit Center  352 is at   3.525705 -3.241014 -0.097697
      ESP Fit Center  353 is at   3.850183 -2.972582 -0.097697
      ESP Fit Center  354 is at   4.097711 -2.631889 -0.097697
      ESP Fit Center  355 is at   4.252736 -2.240342 -0.097697
      ESP Fit Center  356 is at   4.248271 -1.822543 -0.532513
      ESP Fit Center  357 is at   4.192977 -1.402543 -0.532513
      ESP Fit Center  358 is at   1.478055 -2.970004 -0.532513
      ESP Fit Center  359 is at   1.814138 -3.227890 -0.532513
      ESP Fit Center  360 is at   2.205516 -3.390004 -0.532513
      ESP Fit Center  361 is at   2.625516 -3.445298 -0.532513
      ESP Fit Center  362 is at   3.045516 -3.390004 -0.532513
      ESP Fit Center  363 is at   3.436894 -3.227890 -0.532513
      ESP Fit Center  364 is at   3.772977 -2.970004 -0.532513
      ESP Fit Center  365 is at   4.030863 -2.633920 -0.532513
      ESP Fit Center  366 is at   4.192977 -2.242543 -0.532513
      ESP Fit Center  367 is at   4.080439 -1.822543 -0.937697
      ESP Fit Center  368 is at   4.015801 -1.393697 -0.937697
      ESP Fit Center  369 is at   1.558982 -2.812142 -0.937697
      ESP Fit Center  370 is at   1.898055 -3.082543 -0.937697
      ESP Fit Center  371 is at   2.301765 -3.240988 -0.937697
      ESP Fit Center  372 is at   2.734243 -3.273397 -0.937697
      ESP Fit Center  373 is at   3.157059 -3.176892 -0.937697
      ESP Fit Center  374 is at   3.532645 -2.960047 -0.937697
      ESP Fit Center  375 is at   3.827630 -2.642130 -0.937697
      ESP Fit Center  376 is at   4.015801 -2.251389 -0.937697
      ESP Fit Center  377 is at   3.813455 -1.822543 -1.285636
      ESP Fit Center  378 is at   3.733237 -1.393410 -1.285636
      ESP Fit Center  379 is at   1.909623 -2.770539 -1.285636
      ESP Fit Center  380 is at   2.300421 -2.965133 -1.285636
      ESP Fit Center  381 is at   2.735125 -3.005415 -1.285636
      ESP Fit Center  382 is at   3.155026 -2.885943 -1.285636
      ESP Fit Center  383 is at   3.503414 -2.622852 -1.285636
      ESP Fit Center  384 is at   3.733237 -2.251676 -1.285636
      ESP Fit Center  385 is at   3.465516 -1.822543 -1.552619
      ESP Fit Center  386 is at   2.205516 -2.550004 -1.552619
      ESP Fit Center  387 is at   2.625516 -2.662543 -1.552619
      ESP Fit Center  388 is at   3.045516 -2.550004 -1.552619
      ESP Fit Center  389 is at   3.352977 -2.242543 -1.552619
      ESP Fit Center  390 is at   3.060332 -1.822543 -1.720452
      ESP Fit Center  391 is at   2.408108 -2.199104 -1.720452
      ESP Fit Center  392 is at   2.842924 -2.199104 -1.720452
      ESP Fit Center  393 is at   4.180250  0.720853  0.646640
      ESP Fit Center  394 is at   4.067711  1.140853  0.646640
      ESP Fit Center  395 is at   4.528189  0.720853  0.379656
      ESP Fit Center  396 is at   4.447970  1.149986  0.379656
      ESP Fit Center  397 is at   4.218147  1.521163  0.379656
      ESP Fit Center  398 is at   3.869760  1.784253  0.379656
      ESP Fit Center  399 is at   4.447970  0.291720  0.379656
      ESP Fit Center  400 is at   4.795172  0.720853  0.031717
      ESP Fit Center  401 is at   4.730534  1.149699  0.031717
      ESP Fit Center  402 is at   4.542363  1.540440  0.031717
      ESP Fit Center  403 is at   4.247379  1.858357  0.031717
      ESP Fit Center  404 is at   3.871792  2.075202  0.031717
      ESP Fit Center  405 is at   3.448976  2.171708  0.031717
      ESP Fit Center  406 is at   4.542363 -0.098734  0.031717
      ESP Fit Center  407 is at   4.730534  0.292007  0.031717
      ESP Fit Center  408 is at   4.963005  0.720853 -0.373467
      ESP Fit Center  409 is at   4.907711  1.140853 -0.373467
      ESP Fit Center  410 is at   4.745597  1.532231 -0.373467
      ESP Fit Center  411 is at   4.487711  1.868314 -0.373467
      ESP Fit Center  412 is at   4.151627  2.126200 -0.373467
      ESP Fit Center  413 is at   3.760250  2.288314 -0.373467
      ESP Fit Center  414 is at   3.340250  2.343608 -0.373467
      ESP Fit Center  415 is at   4.487711 -0.426608 -0.373467
      ESP Fit Center  416 is at   4.745597 -0.090525 -0.373467
      ESP Fit Center  417 is at   4.907711  0.300853 -0.373467
      ESP Fit Center  418 is at   5.020250  0.720853 -0.808283
      ESP Fit Center  419 is at   4.967469  1.138652 -0.808283
      ESP Fit Center  420 is at   4.812445  1.530199 -0.808283
      ESP Fit Center  421 is at   4.564917  1.870892 -0.808283
      ESP Fit Center  422 is at   4.240439  2.139324 -0.808283
      ESP Fit Center  423 is at   3.859398  2.318628 -0.808283
      ESP Fit Center  424 is at   3.445738  2.397538 -0.808283
      ESP Fit Center  425 is at   3.025449  2.371096 -0.808283
      ESP Fit Center  426 is at   4.240439 -0.697618 -0.808283
      ESP Fit Center  427 is at   4.564917 -0.429186 -0.808283
      ESP Fit Center  428 is at   4.812445 -0.088493 -0.808283
      ESP Fit Center  429 is at   4.967469  0.303054 -0.808283
      ESP Fit Center  430 is at   4.963005  0.720853 -1.243099
      ESP Fit Center  431 is at   4.907711  1.140853 -1.243099
      ESP Fit Center  432 is at   4.745597  1.532231 -1.243099
      ESP Fit Center  433 is at   4.487711  1.868314 -1.243099
      ESP Fit Center  434 is at   4.151627  2.126200 -1.243099
      ESP Fit Center  435 is at   3.760250  2.288314 -1.243099
      ESP Fit Center  436 is at   3.340250  2.343608 -1.243099
      ESP Fit Center  437 is at   2.920250  2.288314 -1.243099
      ESP Fit Center  438 is at   4.151627 -0.684494 -1.243099
      ESP Fit Center  439 is at   4.487711 -0.426608 -1.243099
      ESP Fit Center  440 is at   4.745597 -0.090525 -1.243099
      ESP Fit Center  441 is at   4.907711  0.300853 -1.243099
      ESP Fit Center  442 is at   4.795172  0.720853 -1.648283
      ESP Fit Center  443 is at   4.730534  1.149699 -1.648283
      ESP Fit Center  444 is at   4.542363  1.540440 -1.648283
      ESP Fit Center  445 is at   4.247379  1.858357 -1.648283
      ESP Fit Center  446 is at   3.871792  2.075202 -1.648283
      ESP Fit Center  447 is at   3.448976  2.171708 -1.648283
      ESP Fit Center  448 is at   3.016499  2.139298 -1.648283
      ESP Fit Center  449 is at   3.871792 -0.633496 -1.648283
      ESP Fit Center  450 is at   4.247379 -0.416651 -1.648283
      ESP Fit Center  451 is at   4.542363 -0.098734 -1.648283
      ESP Fit Center  452 is at   4.730534  0.292007 -1.648283
      ESP Fit Center  453 is at   4.528189  0.720853 -1.996222
      ESP Fit Center  454 is at   4.447970  1.149986 -1.996222
      ESP Fit Center  455 is at   4.218147  1.521163 -1.996222
      ESP Fit Center  456 is at   3.869760  1.784253 -1.996222
      ESP Fit Center  457 is at   3.449859  1.903725 -1.996222
      ESP Fit Center  458 is at   3.015154  1.863444 -1.996222
      ESP Fit Center  459 is at   3.869760 -0.342547 -1.996222
      ESP Fit Center  460 is at   4.218147 -0.079456 -1.996222
      ESP Fit Center  461 is at   4.447970  0.291720 -1.996222
      ESP Fit Center  462 is at   4.180250  0.720853 -2.263206
      ESP Fit Center  463 is at   4.067711  1.140853 -2.263206
      ESP Fit Center  464 is at   3.760250  1.448314 -2.263206
      ESP Fit Center  465 is at   3.340250  1.560853 -2.263206
      ESP Fit Center  466 is at   2.920250  1.448314 -2.263206
      ESP Fit Center  467 is at   3.340250 -0.119147 -2.263206
      ESP Fit Center  468 is at   3.760250 -0.006608 -2.263206
      ESP Fit Center  469 is at   4.067711  0.300853 -2.263206
      ESP Fit Center  470 is at   3.775066  0.720853 -2.431038
      ESP Fit Center  471 is at   3.557658  1.097415 -2.431038
      ESP Fit Center  472 is at   3.122842  1.097415 -2.431038
      ESP Fit Center  473 is at   2.905434  0.720853 -2.431038
      ESP Fit Center  474 is at   3.122842  0.344291 -2.431038
      ESP Fit Center  475 is at   3.557658  0.344291 -2.431038
      ESP Fit Center  476 is at   3.340250  0.720853 -2.488283
      ESP Fit Center  477 is at   1.525834  2.946224  1.148800
      ESP Fit Center  478 is at   1.105834  3.058763  1.148800
      ESP Fit Center  479 is at   0.685834  2.946224  1.148800
      ESP Fit Center  480 is at   0.378373  2.638763  1.148800
      ESP Fit Center  481 is at   1.983732  3.019073  0.881817
      ESP Fit Center  482 is at   1.635345  3.282163  0.881817
      ESP Fit Center  483 is at   1.215444  3.401635  0.881817
      ESP Fit Center  484 is at   0.780739  3.361354  0.881817
      ESP Fit Center  485 is at   0.389941  3.166759  0.881817
      ESP Fit Center  486 is at   0.095828  2.844132  0.881817
      ESP Fit Center  487 is at   2.307948  3.038350  0.533878
      ESP Fit Center  488 is at   2.012964  3.356267  0.533878
      ESP Fit Center  489 is at   1.637377  3.573112  0.533878
      ESP Fit Center  490 is at   1.214561  3.669617  0.533878
      ESP Fit Center  491 is at   0.782084  3.637208  0.533878
      ESP Fit Center  492 is at   0.378373  3.478763  0.533878
      ESP Fit Center  493 is at   0.039301  3.208362  0.533878
      ESP Fit Center  494 is at  -0.205006  2.850030  0.533878
      ESP Fit Center  495 is at   2.511182  3.030141  0.128694
      ESP Fit Center  496 is at   2.253296  3.366224  0.128694
      ESP Fit Center  497 is at   1.917212  3.624110  0.128694
      ESP Fit Center  498 is at   1.525834  3.786224  0.128694
      ESP Fit Center  499 is at   1.105834  3.841518  0.128694
      ESP Fit Center  500 is at   0.685834  3.786224  0.128694
      ESP Fit Center  501 is at   0.294457  3.624110  0.128694
      ESP Fit Center  502 is at  -0.041627  3.366224  0.128694
      ESP Fit Center  503 is at  -0.299513  3.030141  0.128694
      ESP Fit Center  504 is at   2.733054  2.636562 -0.306122
      ESP Fit Center  505 is at   2.578030  3.028109 -0.306122
      ESP Fit Center  506 is at   2.330502  3.368802 -0.306122
      ESP Fit Center  507 is at   2.006024  3.637234 -0.306122
      ESP Fit Center  508 is at   1.624983  3.816538 -0.306122
      ESP Fit Center  509 is at   1.211323  3.895448 -0.306122
      ESP Fit Center  510 is at   0.791034  3.869006 -0.306122
      ESP Fit Center  511 is at   0.390525  3.738872 -0.306122
      ESP Fit Center  512 is at   0.034962  3.513225 -0.306122
      ESP Fit Center  513 is at  -0.253314  3.206242 -0.306122
      ESP Fit Center  514 is at  -0.456190  2.837212 -0.306122
      ESP Fit Center  515 is at   2.673296  2.638763 -0.740938
      ESP Fit Center  516 is at   2.511182  3.030141 -0.740938
      ESP Fit Center  517 is at   2.253296  3.366224 -0.740938
      ESP Fit Center  518 is at   1.917212  3.624110 -0.740938
      ESP Fit Center  519 is at   1.525834  3.786224 -0.740938
      ESP Fit Center  520 is at   1.105834  3.841518 -0.740938
      ESP Fit Center  521 is at   0.685834  3.786224 -0.740938
      ESP Fit Center  522 is at   0.294457  3.624110 -0.740938
      ESP Fit Center  523 is at  -0.041627  3.366224 -0.740938
      ESP Fit Center  524 is at  -0.299513  3.030141 -0.740938
      ESP Fit Center  525 is at  -0.461627  2.638763 -0.740938
      ESP Fit Center  526 is at  -0.516921  2.218763 -0.740938
      ESP Fit Center  527 is at   2.496119  2.647609 -1.146122
      ESP Fit Center  528 is at   2.307948  3.038350 -1.146122
      ESP Fit Center  529 is at   2.012964  3.356267 -1.146122
      ESP Fit Center  530 is at   1.637377  3.573112 -1.146122
      ESP Fit Center  531 is at   1.214561  3.669617 -1.146122
      ESP Fit Center  532 is at   0.782084  3.637208 -1.146122
      ESP Fit Center  533 is at   0.378373  3.478763 -1.146122
      ESP Fit Center  534 is at   0.039301  3.208362 -1.146122
      ESP Fit Center  535 is at  -0.205006  2.850030 -1.146122
      ESP Fit Center  536 is at  -0.332838  2.435608 -1.146122
      ESP Fit Center  537 is at   2.213555  2.647896 -1.494062
      ESP Fit Center  538 is at   1.983732  3.019073 -1.494062
      ESP Fit Center  539 is at   1.635345  3.282163 -1.494062
      ESP Fit Center  540 is at   1.215444  3.401635 -1.494062
      ESP Fit Center  541 is at   0.780739  3.361354 -1.494062
      ESP Fit Center  542 is at   0.389941  3.166759 -1.494062
      ESP Fit Center  543 is at   0.095828  2.844132 -1.494062
      ESP Fit Center  544 is at  -0.061878  2.437046 -1.494062
      ESP Fit Center  545 is at   1.833296  2.638763 -1.761045
      ESP Fit Center  546 is at   1.525834  2.946224 -1.761045
      ESP Fit Center  547 is at   1.105834  3.058763 -1.761045
      ESP Fit Center  548 is at   0.685834  2.946224 -1.761045
      ESP Fit Center  549 is at   0.378373  2.638763 -1.761045
      ESP Fit Center  550 is at   0.265834  2.218763 -1.761045
      ESP Fit Center  551 is at   1.323242  2.595325 -1.928878
      ESP Fit Center  552 is at   0.888426  2.595325 -1.928878
      ESP Fit Center  553 is at   0.671019  2.218763 -1.928878
      ESP Fit Center  554 is at   1.105834  2.218763 -1.986122
      ESP Fit Center  555 is at  -0.019987  0.898711  2.520073
      ESP Fit Center  556 is at  -0.245700  1.263250  2.520073
      ESP Fit Center  557 is at  -0.587858  1.521636  2.520073
      ESP Fit Center  558 is at  -1.810992  1.408296  2.520073
      ESP Fit Center  559 is at   0.141298  1.280062  2.258911
      ESP Fit Center  560 is at  -0.135481  1.599482  2.258911
      ESP Fit Center  561 is at  -2.357098  1.280062  2.258911
      ESP Fit Center  562 is at  -2.653982  1.288698  1.940684
      ESP Fit Center  563 is at  -2.803248  0.895117  1.940684
      ESP Fit Center  564 is at  -0.896573  1.947061 -0.710938
      ESP Fit Center  565 is at  -3.113819  0.287150  1.878107
      ESP Fit Center  566 is at  -3.226083 -0.131825  1.878107
      ESP Fit Center  567 is at  -3.113819 -0.550800  1.878107
      ESP Fit Center  568 is at  -2.807108 -0.857510  1.878107
      ESP Fit Center  569 is at  -3.000633  0.929056  1.697622
      ESP Fit Center  570 is at  -3.326538  0.655590  1.697622
      ESP Fit Center  571 is at  -3.539257  0.287150  1.697622
      ESP Fit Center  572 is at  -3.613133 -0.131825  1.697622
      ESP Fit Center  573 is at  -3.539257 -0.550800  1.697622
      ESP Fit Center  574 is at  -3.326538 -0.919240  1.697622
      ESP Fit Center  575 is at  -3.000633 -1.192706  1.697622
      ESP Fit Center  576 is at  -2.600852 -1.338214  1.697622
      ESP Fit Center  577 is at  -2.915512  1.352075  1.452669
      ESP Fit Center  578 is at  -3.296307  1.154763  1.452669
      ESP Fit Center  579 is at  -3.609746  0.862031  1.452669
      ESP Fit Center  580 is at  -3.832585  0.495589  1.452669
      ESP Fit Center  581 is at  -3.948295  0.082614  1.452669
      ESP Fit Center  582 is at  -3.948295 -0.346264  1.452669
      ESP Fit Center  583 is at  -3.832585 -0.759239  1.452669
      ESP Fit Center  584 is at  -3.609746 -1.125681  1.452669
      ESP Fit Center  585 is at  -3.296307 -1.418413  1.452669
      ESP Fit Center  586 is at  -2.915512 -1.615725  1.452669
      ESP Fit Center  587 is at  -2.495603 -1.702983  1.452669
      ESP Fit Center  588 is at  -2.067725 -1.673716  1.452669
      ESP Fit Center  589 is at  -3.202450  1.559121  1.150690
      ESP Fit Center  590 is at  -3.558304  1.335523  1.150690
      ESP Fit Center  591 is at  -3.855482  1.038346  1.150690
      ESP Fit Center  592 is at  -4.079080  0.682492  1.150690
      ESP Fit Center  593 is at  -4.217887  0.285804  1.150690
      ESP Fit Center  594 is at  -4.264942 -0.131825  1.150690
      ESP Fit Center  595 is at  -4.217887 -0.549454  1.150690
      ESP Fit Center  596 is at  -4.079080 -0.946142  1.150690
      ESP Fit Center  597 is at  -3.855482 -1.301996  1.150690
      ESP Fit Center  598 is at  -3.558304 -1.599173  1.150690
      ESP Fit Center  599 is at  -3.202450 -1.822771  1.150690
      ESP Fit Center  600 is at  -2.805763 -1.961578  1.150690
      ESP Fit Center  601 is at  -1.217962 -1.599173  1.150690
      ESP Fit Center  602 is at  -3.200097  1.828428  0.800860
      ESP Fit Center  603 is at  -3.566921  1.632356  0.800860
      ESP Fit Center  604 is at  -3.888446  1.368488  0.800860
      ESP Fit Center  605 is at  -4.152314  1.046963  0.800860
      ESP Fit Center  606 is at  -4.348386  0.680138  0.800860
      ESP Fit Center  607 is at  -4.469126  0.282110  0.800860
      ESP Fit Center  608 is at  -4.509896 -0.131825  0.800860
      ESP Fit Center  609 is at  -4.469126 -0.545760  0.800860
      ESP Fit Center  610 is at  -4.348386 -0.943788  0.800860
      ESP Fit Center  611 is at  -4.152314 -1.310613  0.800860
      ESP Fit Center  612 is at  -3.888446 -1.632137  0.800860
      ESP Fit Center  613 is at  -3.566921 -1.896006  0.800860
      ESP Fit Center  614 is at  -3.200097 -2.092078  0.800860
      ESP Fit Center  615 is at  -3.018173  2.082535  0.413809
      ESP Fit Center  616 is at  -3.414333  1.929062  0.413809
      ESP Fit Center  617 is at  -3.775547  1.705408  0.413809
      ESP Fit Center  618 is at  -4.089514  1.419189  0.413809
      ESP Fit Center  619 is at  -4.345543  1.080152  0.413809
      ESP Fit Center  620 is at  -4.534915  0.699843  0.413809
      ESP Fit Center  621 is at  -4.651180  0.291212  0.413809
      ESP Fit Center  622 is at  -4.690380 -0.131825  0.413809
      ESP Fit Center  623 is at  -4.651180 -0.554862  0.413809
      ESP Fit Center  624 is at  -4.534915 -0.963492  0.413809
      ESP Fit Center  625 is at  -4.345543 -1.343802  0.413809
      ESP Fit Center  626 is at  -4.089514 -1.682839  0.413809
      ESP Fit Center  627 is at  -3.775547 -1.969058  0.413809
      ESP Fit Center  628 is at  -3.414333 -2.192712  0.413809
      ESP Fit Center  629 is at  -2.807108  2.244299  0.001298
      ESP Fit Center  630 is at  -3.213352  2.135446  0.001298
      ESP Fit Center  631 is at  -3.594523  1.957703  0.001298
      ESP Fit Center  632 is at  -3.939038  1.716471  0.001298
      ESP Fit Center  633 is at  -4.236429  1.419080  0.001298
      ESP Fit Center  634 is at  -4.477661  1.074565  0.001298
      ESP Fit Center  635 is at  -4.655404  0.693394  0.001298
      ESP Fit Center  636 is at  -4.764257  0.287150  0.001298
      ESP Fit Center  637 is at  -4.800912 -0.131825  0.001298
      ESP Fit Center  638 is at  -4.764257 -0.550800  0.001298
      ESP Fit Center  639 is at  -4.655404 -0.957044  0.001298
      ESP Fit Center  640 is at  -4.477661 -1.338214  0.001298
      ESP Fit Center  641 is at  -4.236429 -1.682729  0.001298
      ESP Fit Center  642 is at  -3.939038 -1.980121  0.001298
      ESP Fit Center  643 is at  -3.594523 -2.221353  0.001298
      ESP Fit Center  644 is at  -2.284152  2.315968 -0.424140
      ESP Fit Center  645 is at  -2.699327  2.298331 -0.424140
      ESP Fit Center  646 is at  -3.105549  2.210784 -0.424140
      ESP Fit Center  647 is at  -3.491132  2.055843 -0.424140
      ESP Fit Center  648 is at  -3.844985  1.837968 -0.424140
      ESP Fit Center  649 is at  -4.156926  1.563425 -0.424140
      ESP Fit Center  650 is at  -4.417982  1.240113 -0.424140
      ESP Fit Center  651 is at  -4.620643  0.877333 -0.424140
      ESP Fit Center  652 is at  -4.759079  0.485521 -0.424140
      ESP Fit Center  653 is at  -4.829307  0.075950 -0.424140
      ESP Fit Center  654 is at  -4.829307 -0.339599 -0.424140
      ESP Fit Center  655 is at  -4.759079 -0.749171 -0.424140
      ESP Fit Center  656 is at  -4.620643 -1.140983 -0.424140
      ESP Fit Center  657 is at  -4.417982 -1.503763 -0.424140
      ESP Fit Center  658 is at  -4.156926 -1.827075 -0.424140
      ESP Fit Center  659 is at  -3.844985 -2.101618 -0.424140
      ESP Fit Center  660 is at  -3.491132 -2.319493 -0.424140
      ESP Fit Center  661 is at  -1.181744  1.957703 -0.849578
      ESP Fit Center  662 is at  -1.562914  2.135446 -0.849578
      ESP Fit Center  663 is at  -1.969159  2.244299 -0.849578
      ESP Fit Center  664 is at  -2.388133  2.280954 -0.849578
      ESP Fit Center  665 is at  -2.807108  2.244299 -0.849578
      ESP Fit Center  666 is at  -3.213352  2.135446 -0.849578
      ESP Fit Center  667 is at  -3.594523  1.957703 -0.849578
      ESP Fit Center  668 is at  -3.939038  1.716471 -0.849578
[...]
 4347 Fit      -0.001060
 4348 Fit       0.004235
 4349 Fit       0.004090
 4350 Fit       0.003439
 4351 Fit       0.002147
 4352 Fit       0.000058
 4353 Fit       0.002009
 4354 Fit       0.001649
 4355 Fit       0.000187
 4356 Fit       0.005859
 4357 Fit       0.006792
 4358 Fit       0.007608
 4359 Fit       0.008049
 4360 Fit       0.002975
 4361 Fit       0.003215
 4362 Fit       0.004050
 4363 Fit       0.005323
 4364 Fit       0.006677
 4365 Fit       0.007768
 4366 Fit       0.008380
 4367 Fit       0.008442
 4368 Fit       0.008038
 4369 Fit       0.007385
 4370 Fit       0.003046
 4371 Fit       0.004839
 4372 Fit       0.006589
 4373 Fit       0.008020
 4374 Fit       0.008399
 4375 Fit       0.007370
 4376 Fit       0.006229
 4377 Fit       0.002721
 4378 Fit       0.005198
 4379 Fit       0.007384
 4380 Fit       0.006501
 4381 Fit       0.004795
 4382 Fit       0.003180
 4383 Fit       0.006133
 4384 Fit       0.005188
 4385 Fit       0.001539
 4386 Fit      -0.000709
 4387 Fit      -0.001917
 4388 Fit      -0.001970
 4389 Fit      -0.000900
 4390 Fit       0.000488
 4391 Fit      -0.002009
 4392 Fit      -0.003819
 4393 Fit      -0.004831
 4394 Fit      -0.005009
 4395 Fit      -0.004386
 4396 Fit      -0.003057
 4397 Fit      -0.001165
 4398 Fit       0.001128
 4399 Fit       0.002831
 4400 Fit      -0.000198
 4401 Fit      -0.002800
 4402 Fit      -0.004885
 4403 Fit      -0.006377
 4404 Fit      -0.007231
 4405 Fit      -0.007437
 4406 Fit      -0.007024
 4407 Fit      -0.006053
 4408 Fit      -0.004616
 4409 Fit      -0.002832
 4410 Fit      -0.000843
 4411 Fit       0.001189
 4412 Fit       0.004622
 4413 Fit       0.001272
 4414 Fit      -0.001676
 4415 Fit      -0.004206
 4416 Fit      -0.006272
 4417 Fit      -0.007830
 4418 Fit      -0.008846
 4419 Fit      -0.009307
 4420 Fit      -0.009226
 4421 Fit      -0.008640
 4422 Fit      -0.007604
 4423 Fit      -0.006194
 4424 Fit      -0.004503
 4425 Fit      -0.002646
 4426 Fit      -0.000770
 4427 Fit       0.000945
 4428 Fit       0.002307
 4429 Fit       0.003146
 4430 Fit       0.001892
 4431 Fit      -0.001212
 4432 Fit      -0.003915
 4433 Fit      -0.006209
 4434 Fit      -0.008063
 4435 Fit      -0.009446
 4436 Fit      -0.010334
 4437 Fit      -0.010722
 4438 Fit      -0.010625
 4439 Fit      -0.010072
 4440 Fit      -0.009111
 4441 Fit      -0.007799
 4442 Fit      -0.006206
 4443 Fit      -0.004418
 4444 Fit      -0.002543
 4445 Fit      -0.000733
 4446 Fit       0.000816
 4447 Fit       0.001864
 4448 Fit       0.002156
 4449 Fit       0.001451
 4450 Fit       0.002474
 4451 Fit      -0.000656
 4452 Fit      -0.003410
 4453 Fit      -0.005805
 4454 Fit      -0.007825
 4455 Fit      -0.009443
 4456 Fit      -0.010633
 4457 Fit      -0.011380
 4458 Fit      -0.011681
 4459 Fit      -0.011551
 4460 Fit      -0.011016
 4461 Fit      -0.010115
 4462 Fit      -0.008892
 4463 Fit      -0.007399
 4464 Fit      -0.005694
 4465 Fit      -0.003851
 4466 Fit      -0.001973
 4467 Fit      -0.000206
 4468 Fit       0.001241
 4469 Fit       0.002107
 4470 Fit       0.002087
 4471 Fit       0.000844
 4472 Fit       0.005174
 4473 Fit       0.001816
 4474 Fit      -0.001148
 4475 Fit      -0.003781
 4476 Fit      -0.006095
 4477 Fit      -0.008073
 4478 Fit      -0.009690
 4479 Fit      -0.010921
 4480 Fit      -0.011748
 4481 Fit      -0.012163
 4482 Fit      -0.012176
 4483 Fit      -0.011803
 4484 Fit      -0.011077
 4485 Fit      -0.010032
 4486 Fit      -0.008710
 4487 Fit      -0.007152
 4488 Fit      -0.005405
 4489 Fit      -0.003527
 4490 Fit      -0.001604
 4491 Fit       0.000231
 4492 Fit       0.001776
 4493 Fit       0.004029
 4494 Fit       0.001022
 4495 Fit      -0.001681
 4496 Fit      -0.004115
 4497 Fit      -0.006278
 4498 Fit      -0.008151
 4499 Fit      -0.009709
 4500 Fit      -0.010925
 4501 Fit      -0.011781
 4502 Fit      -0.012266
 4503 Fit      -0.012383
 4504 Fit      -0.012144
 4505 Fit      -0.011572
 4506 Fit      -0.010697
 4507 Fit      -0.009551
 4508 Fit      -0.008170
 4509 Fit      -0.006584
 4510 Fit      -0.004830
 4511 Fit      -0.002951
 4512 Fit      -0.001013
 4513 Fit       0.000868
 4514 Fit       0.004695
 4515 Fit       0.001873
 4516 Fit      -0.000706
 4517 Fit      -0.003068
 4518 Fit      -0.005211
 4519 Fit      -0.007117
 4520 Fit      -0.008760
 4521 Fit      -0.010113
 4522 Fit      -0.011149
 4523 Fit      -0.011852
 4524 Fit      -0.012212
 4525 Fit      -0.012233
 4526 Fit      -0.011928
 4527 Fit      -0.011318
 4528 Fit      -0.010431
 4529 Fit      -0.009298
 4530 Fit      -0.007948
 4531 Fit      -0.006409
 4532 Fit      -0.004706
 4533 Fit      -0.002870
 4534 Fit      -0.000944
 4535 Fit       0.000989
 4536 Fit       0.006600
 4537 Fit       0.003948
 4538 Fit       0.001467
 4539 Fit      -0.000855
 4540 Fit      -0.003017
 4541 Fit      -0.005007
 4542 Fit      -0.006802
 4543 Fit      -0.008370
 4544 Fit      -0.009682
 4545 Fit      -0.010709
 4546 Fit      -0.011430
 4547 Fit      -0.011834
 4548 Fit      -0.011916
 4549 Fit      -0.011687
 4550 Fit      -0.011164
 4551 Fit      -0.010372
 4552 Fit      -0.009339
 4553 Fit      -0.008095
 4554 Fit      -0.006667
 4555 Fit      -0.005078
 4556 Fit      -0.003350
 4557 Fit      -0.001507
 4558 Fit       0.000403
 4559 Fit       0.002294
 4560 Fit       0.007147
 4561 Fit       0.004946
 4562 Fit       0.002794
 4563 Fit       0.000711
 4564 Fit      -0.001288
 4565 Fit      -0.003187
 4566 Fit      -0.004962
 4567 Fit      -0.006584
 4568 Fit      -0.008021
 4569 Fit      -0.009241
 4570 Fit      -0.010213
 4571 Fit      -0.010914
 4572 Fit      -0.011329
 4573 Fit      -0.011450
 4574 Fit      -0.011282
 4575 Fit      -0.010838
 4576 Fit      -0.010139
 4577 Fit      -0.009212
 4578 Fit      -0.008084
 4579 Fit      -0.006784
 4580 Fit      -0.005335
 4581 Fit      -0.003758
 4582 Fit      -0.002069
 4583 Fit      -0.000298
 4584 Fit       0.001508
 4585 Fit       0.007089
 4586 Fit       0.005469
 4587 Fit       0.003787
 4588 Fit       0.002063
 4589 Fit       0.000326
 4590 Fit      -0.001395
 4591 Fit      -0.003072
 4592 Fit      -0.004676
 4593 Fit      -0.006170
 4594 Fit      -0.007519
 4595 Fit      -0.008685
 4596 Fit      -0.009634
 4597 Fit      -0.010335
 4598 Fit      -0.010769
 4599 Fit      -0.010924
 4600 Fit      -0.010798
 4601 Fit      -0.010401
 4602 Fit      -0.009753
 4603 Fit      -0.008879
 4604 Fit      -0.007809
 4605 Fit      -0.006573
 4606 Fit      -0.005199
 4607 Fit      -0.003710
 4608 Fit      -0.002126
 4609 Fit      -0.000473
 4610 Fit       0.001209
 4611 Fit       0.002841
 4612 Fit       0.004083
 4613 Fit       0.003086
 4614 Fit       0.001953
 4615 Fit       0.000709
 4616 Fit      -0.000615
 4617 Fit      -0.001986
 4618 Fit      -0.003371
 4619 Fit      -0.004732
 4620 Fit      -0.006032
 4621 Fit      -0.007231
 4622 Fit      -0.008288
 4623 Fit      -0.009165
 4624 Fit      -0.009829
 4625 Fit      -0.010254
 4626 Fit      -0.010422
 4627 Fit      -0.010327
 4628 Fit      -0.009976
 4629 Fit      -0.009383
 4630 Fit      -0.008573
 4631 Fit      -0.007575
 4632 Fit      -0.006421
 4633 Fit      -0.005143
 4634 Fit      -0.003768
 4635 Fit      -0.002322
 4636 Fit      -0.000831
 4637 Fit       0.000667
 4638 Fit       0.002107
 4639 Fit       0.003381
 4640 Fit       0.000216
 4641 Fit      -0.000070
 4642 Fit      -0.000653
 4643 Fit      -0.001434
 4644 Fit      -0.002356
 4645 Fit      -0.003375
 4646 Fit      -0.004448
 4647 Fit      -0.005535
 4648 Fit      -0.006593
 4649 Fit      -0.007578
 4650 Fit      -0.008446
 4651 Fit      -0.009155
 4652 Fit      -0.009669
 4653 Fit      -0.009961
 4654 Fit      -0.010012
 4655 Fit      -0.009816
 4656 Fit      -0.009380
 4657 Fit      -0.008721
 4658 Fit      -0.007865
 4659 Fit      -0.006844
 4660 Fit      -0.005695
 4661 Fit      -0.004453
 4662 Fit      -0.003151
 4663 Fit      -0.001820
 4664 Fit      -0.000496
 4665 Fit       0.000770
 4666 Fit       0.001898
 4667 Fit       0.002767
 4668 Fit      -0.004277
 4669 Fit      -0.003903
 4670 Fit      -0.003513
 4671 Fit      -0.003584
 4672 Fit      -0.003948
 4673 Fit      -0.004511
 4674 Fit      -0.005209
 4675 Fit      -0.005990
 4676 Fit      -0.006806
 4677 Fit      -0.007606
 4678 Fit      -0.008343
 4679 Fit      -0.008968
 4680 Fit      -0.009437
 4681 Fit      -0.009714
 4682 Fit      -0.009772
 4683 Fit      -0.009598
 4684 Fit      -0.009191
 4685 Fit      -0.008567
 4686 Fit      -0.007750
 4687 Fit      -0.006775
 4688 Fit      -0.005683
 4689 Fit      -0.004516
 4690 Fit      -0.003315
 4691 Fit      -0.002122
 4692 Fit      -0.000981
 4693 Fit       0.000047
 4694 Fit       0.000879
 4695 Fit       0.001401
 4696 Fit       0.001477
 4697 Fit       0.000985
 4698 Fit      -0.000136
 4699 Fit      -0.001850
 4700 Fit      -0.004019
 4701 Fit      -0.006426
 4702 Fit      -0.009360
 4703 Fit      -0.007741
 4704 Fit      -0.006836
 4705 Fit      -0.006454
 4706 Fit      -0.006429
 4707 Fit      -0.006649
 4708 Fit      -0.007034
 4709 Fit      -0.007525
 4710 Fit      -0.008067
 4711 Fit      -0.008605
 4712 Fit      -0.009088
 4713 Fit      -0.009464
 4714 Fit      -0.009691
 4715 Fit      -0.009733
 4716 Fit      -0.009568
 4717 Fit      -0.009189
 4718 Fit      -0.008605
 4719 Fit      -0.007838
 4720 Fit      -0.006923
 4721 Fit      -0.005905
 4722 Fit      -0.004832
 4723 Fit      -0.003752
 4724 Fit      -0.002718
 4725 Fit      -0.001782
 4726 Fit      -0.001011
 4727 Fit      -0.000487
 4728 Fit      -0.000310
 4729 Fit      -0.000581
 4730 Fit      -0.001371
 4731 Fit      -0.002685
 4732 Fit      -0.004439
 4733 Fit      -0.006481
 4734 Fit      -0.008626
 4735 Fit      -0.010715
 4736 Fit      -0.012669
 4737 Fit      -0.017173
 4738 Fit      -0.014292
 4739 Fit      -0.012335
 4740 Fit      -0.010744
 4741 Fit      -0.009655
 4742 Fit      -0.009019
 4743 Fit      -0.008732
 4744 Fit      -0.008698
 4745 Fit      -0.008837
 4746 Fit      -0.009083
 4747 Fit      -0.009375
 4748 Fit      -0.009654
 4749 Fit      -0.009862
 4750 Fit      -0.009949
 4751 Fit      -0.009874
 4752 Fit      -0.009611
 4753 Fit      -0.009151
 4754 Fit      -0.008504
 4755 Fit      -0.007699
 4756 Fit      -0.006779
 4757 Fit      -0.005797
 4758 Fit      -0.004813
 4759 Fit      -0.003888
 4760 Fit      -0.003088
 4761 Fit      -0.002481
 4762 Fit      -0.002148
 4763 Fit      -0.002172
 4764 Fit      -0.002631
 4765 Fit      -0.003562
 4766 Fit      -0.004939
 4767 Fit      -0.006662
 4768 Fit      -0.008583
 4769 Fit      -0.010551
 4770 Fit      -0.012456
 4771 Fit      -0.014243
 4772 Fit      -0.015867
 4773 Fit      -0.016423
 4774 Fit      -0.016866
 4775 Fit      -0.016572
 4776 Fit      -0.015616
 4777 Fit      -0.014302
 4778 Fit      -0.012989
 4779 Fit      -0.011913
 4780 Fit      -0.011153
 4781 Fit      -0.010683
 4782 Fit      -0.010442
 4783 Fit      -0.010363
 4784 Fit      -0.010382
 4785 Fit      -0.010433
 4786 Fit      -0.010456
 4787 Fit      -0.010393
 4788 Fit      -0.010199
 4789 Fit      -0.009842
 4790 Fit      -0.009314
 4791 Fit      -0.008626
 4792 Fit      -0.007814
 4793 Fit      -0.006929
 4794 Fit      -0.006036
 4795 Fit      -0.005208
 4796 Fit      -0.004519
 4797 Fit      -0.004046
 4798 Fit      -0.003865
 4799 Fit      -0.004049
 4800 Fit      -0.004651
 4801 Fit      -0.005680
 4802 Fit      -0.007085
 4803 Fit      -0.008753
 4804 Fit      -0.010543
 4805 Fit      -0.012318
 4806 Fit      -0.013969
 4807 Fit      -0.015389
 4808 Fit      -0.015896
 4809 Fit      -0.016266
 4810 Fit      -0.016026
 4811 Fit      -0.015300
 4812 Fit      -0.014348
 4813 Fit      -0.013422
 4814 Fit      -0.012667
 4815 Fit      -0.012120
 4816 Fit      -0.011753
 4817 Fit      -0.011512
 4818 Fit      -0.011332
 4819 Fit      -0.011146
 4820 Fit      -0.010890
 4821 Fit      -0.010517
 4822 Fit      -0.009998
 4823 Fit      -0.009334
 4824 Fit      -0.008559
 4825 Fit      -0.007729
 4826 Fit      -0.006926
 4827 Fit      -0.006239
 4828 Fit      -0.005760
 4829 Fit      -0.005579
 4830 Fit      -0.005771
 4831 Fit      -0.006384
 4832 Fit      -0.007415
 4833 Fit      -0.008797
 4834 Fit      -0.010401
 4835 Fit      -0.012070
 4836 Fit      -0.013644
 4837 Fit      -0.014972
 4838 Fit      -0.015453
 4839 Fit      -0.015812
 4840 Fit      -0.015602
 4841 Fit      -0.014994
 4842 Fit      -0.014240
 4843 Fit      -0.013532
 4844 Fit      -0.012951
 4845 Fit      -0.012488
 4846 Fit      -0.012088
 4847 Fit      -0.011679
 4848 Fit      -0.011194
 4849 Fit      -0.010589
 4850 Fit      -0.009866
 4851 Fit      -0.009071
 4852 Fit      -0.008297
 4853 Fit      -0.007663
 4854 Fit      -0.007298
 4855 Fit      -0.007316
 4856 Fit      -0.007793
 4857 Fit      -0.008738
 4858 Fit      -0.010070
 4859 Fit      -0.011624
 4860 Fit      -0.013185
 4861 Fit      -0.014529
 4862 Fit      -0.014982
 4863 Fit      -0.015345
 4864 Fit      -0.015129
 4865 Fit      -0.014562
 4866 Fit      -0.013894
 4867 Fit      -0.013256
 4868 Fit      -0.012653
 4869 Fit      -0.012029
 4870 Fit      -0.011327
 4871 Fit      -0.010547
 4872 Fit      -0.009769
 4873 Fit      -0.009148
 4874 Fit      -0.008873
 4875 Fit      -0.009098
 4876 Fit      -0.009884
 4877 Fit      -0.011141
 4878 Fit      -0.012626
 4879 Fit      -0.014012
 4880 Fit      -0.014420
 4881 Fit      -0.014754
 4882 Fit      -0.014428
 4883 Fit      -0.013768
 4884 Fit      -0.013000
 4885 Fit      -0.012176
 4886 Fit      -0.011330
 4887 Fit      -0.010638
 4888 Fit      -0.010400
 4889 Fit      -0.010865
 4890 Fit      -0.011992
 4891 Fit      -0.013371
 4892 Fit      -0.013750
 4893 Fit      -0.013884
 4894 Fit      -0.013114
 4895 Fit      -0.012161
 4896 Fit      -0.011798
 4897 Fit      -0.012609
 4898 Fit      -0.012985
 4899 Fit       0.006842
 4900 Fit       0.006536
 4901 Fit       0.006887
 4902 Fit       0.007028
 4903 Fit       0.006841
 4904 Fit       0.006695
 4905 Fit       0.006521
 4906 Fit       0.005921
 4907 Fit       0.006337
 4908 Fit       0.006870
 4909 Fit       0.007202
 4910 Fit       0.007142
 4911 Fit       0.006813
 4912 Fit       0.006512
 4913 Fit       0.006415
 4914 Fit       0.006411
 4915 Fit       0.006280
 4916 Fit       0.006004
 4917 Fit       0.005813
 4918 Fit       0.004980
 4919 Fit       0.005448
 4920 Fit       0.006124
 4921 Fit       0.006846
 4922 Fit       0.007370
 4923 Fit       0.007513
 4924 Fit       0.007259
 4925 Fit       0.006744
 4926 Fit       0.006193
 4927 Fit       0.005818
 4928 Fit       0.005720
 4929 Fit       0.005836
 4930 Fit       0.005971
 4931 Fit       0.005931
 4932 Fit       0.005647
 4933 Fit       0.005224
 4934 Fit       0.004877
 4935 Fit       0.004781
 4936 Fit       0.003682
 4937 Fit       0.004228
 4938 Fit       0.005028
 4939 Fit       0.007853
 4940 Fit       0.007239
 4941 Fit       0.006399
 4942 Fit       0.005547
 4943 Fit       0.004889
 4944 Fit       0.004573
 4945 Fit       0.004626
 4946 Fit       0.004931
 4947 Fit       0.005276
 4948 Fit       0.005445
 4949 Fit       0.005300
 4950 Fit       0.004839
 4951 Fit       0.004201
 4952 Fit       0.003623
 4953 Fit       0.003320
 4954 Fit       0.003362
 4955 Fit       0.006750
 4956 Fit       0.005426
 4957 Fit       0.004195
 4958 Fit       0.003274
 4959 Fit       0.002829
 4960 Fit       0.002900
 4961 Fit       0.003377
 4962 Fit       0.004028
 4963 Fit       0.004583
 4964 Fit       0.004814
 4965 Fit       0.004597
 4966 Fit       0.003938
 4967 Fit       0.002985
 4968 Fit       0.002013
 4969 Fit       0.001345
 4970 Fit       0.001191
 4971 Fit       0.001488
 4972 Fit       0.002194
 4973 Fit       0.000921
 4974 Fit       0.000360
 4975 Fit       0.001032
 4976 Fit       0.002050
 4977 Fit       0.003097
 4978 Fit       0.003869
 4979 Fit       0.004145
 4980 Fit       0.003812
 4981 Fit       0.002879
 4982 Fit       0.001486
 4983 Fit      -0.000081
 4984 Fit       0.003459
 4985 Fit       0.003419
 4986 Fit       0.002461
 4987 Fit       0.000646
 4988 Fit       0.002512
 4989 Fit       0.000441
 4990 Fit       0.009039
 4991 Fit       0.008958
 4992 Fit       0.008758
 4993 Fit       0.009283
 4994 Fit       0.009382
 4995 Fit       0.009100
 4996 Fit       0.008556
 4997 Fit       0.008069
 4998 Fit       0.009136
 4999 Fit       0.009729
 5000 Fit       0.009884
 5001 Fit       0.009663
 5002 Fit       0.009124
 5003 Fit       0.008337
 5004 Fit       0.007412
 5005 Fit       0.007156
 5006 Fit       0.008831
 5007 Fit       0.009857
 5008 Fit       0.010349
 5009 Fit       0.010421
 5010 Fit       0.010150
 5011 Fit       0.009578
 5012 Fit       0.008729
 5013 Fit       0.007632
 5014 Fit       0.006339
 5015 Fit       0.008427
 5016 Fit       0.009914
 5017 Fit       0.010696
 5018 Fit       0.010993
 5019 Fit       0.010941
 5020 Fit       0.010608
 5021 Fit       0.010019
 5022 Fit       0.009176
 5023 Fit       0.008067
 5024 Fit       0.006673
 5025 Fit       0.004984
 5026 Fit       0.010590
 5027 Fit       0.011372
 5028 Fit       0.011616
 5029 Fit       0.011527
 5030 Fit       0.011193
 5031 Fit       0.010639
 5032 Fit       0.009857
 5033 Fit       0.008821
 5034 Fit       0.007484
 5035 Fit       0.005776
 5036 Fit       0.012473
 5037 Fit       0.012420
 5038 Fit       0.012143
 5039 Fit       0.011718
 5040 Fit       0.011149
 5041 Fit       0.010415
 5042 Fit       0.009478
 5043 Fit       0.008286
 5044 Fit       0.006760
 5045 Fit       0.013432
 5046 Fit       0.012717
 5047 Fit       0.012044
 5048 Fit       0.011343
 5049 Fit       0.010552
 5050 Fit       0.009610
 5051 Fit       0.008453
 5052 Fit       0.006998
 5053 Fit       0.013998
 5054 Fit       0.012757
 5055 Fit       0.011781
 5056 Fit       0.010875
 5057 Fit       0.009918
 5058 Fit       0.008819
 5059 Fit       0.007488
 5060 Fit       0.013465
 5061 Fit       0.011953
 5062 Fit       0.010788
 5063 Fit       0.009709
 5064 Fit       0.008561
 5065 Fit       0.011969
 5066 Fit       0.010460
 5067 Fit       0.009226
 5068 Fit       0.008022
 5069 Fit       0.010579
 5070 Fit       0.008946
 5071 Fit       0.002850
 5072 Fit       0.002688
 5073 Fit       0.001405
 5074 Fit       0.002860
 5075 Fit       0.003388
 5076 Fit       0.003154
 5077 Fit       0.001974
 5078 Fit      -0.000532
 5079 Fit       0.003053
 5080 Fit       0.003774
 5081 Fit       0.003859
 5082 Fit       0.003199
 5083 Fit       0.001567
 5084 Fit       0.003156
 5085 Fit       0.003979
 5086 Fit       0.004284
 5087 Fit       0.004013
 5088 Fit       0.003048
 5089 Fit       0.001164
 5090 Fit       0.003777
 5091 Fit       0.004337
 5092 Fit       0.004439
 5093 Fit       0.004025
 5094 Fit       0.002994
 5095 Fit       0.001172
 5096 Fit       0.003640
 5097 Fit       0.004216
 5098 Fit       0.004372
 5099 Fit       0.004060
 5100 Fit       0.003205
 5101 Fit       0.001693
 5102 Fit      -0.000657
 5103 Fit       0.003697
 5104 Fit       0.003992
 5105 Fit       0.003857
 5106 Fit       0.003231
 5107 Fit       0.002037
 5108 Fit       0.000171
 5109 Fit      -0.002497
 5110 Fit       0.003254
 5111 Fit       0.003252
 5112 Fit       0.002803
 5113 Fit       0.001846
 5114 Fit       0.000312
 5115 Fit      -0.001864
 5116 Fit       0.001563
 5117 Fit       0.000408
 -----------------------------------------------------------------
 Leave Link  602 at Sat Nov 12 01:44:58 2011, MaxMem=  939524096 cpu:      17.4
 (Enter /pdc/vol/gaussian/G03RevD.01/g03/l9999.exe)

 This type of calculation cannot be archived.


 ABOVE ALL I AM AN OPTIMIST FOR NUMBER THEORY,
 AND I HOLD THE HOPE THAT WE MAY NOT BE FAR FROM
 A TIME WHEN IRREFUTABLE ARITHMETIC WILL CELEBRATE
 ITS TRIUMPHS IN PHYSICS AND CHEMISTRY.
   -- HERMANN MINKOWSKI, 1905
 Job cpu time:  0 days  0 hours  3 minutes  9.4 seconds.
 File lengths (MBytes):  RWF=     32 Int=      0 D2E=      0 Chk=     22 Scr=      1
 Normal termination of Gaussian 03 at Sat Nov 12 01:45:03 2011.

real	1m9.219s
user	2m26.501s
sys	0m43.340s
