 Entering Gaussian System, Link 0=g03
 Initial command:
 /pdc/vol/gaussian/G03RevD.01/g03/l1.exe /scratch/Gau-5621.inp -scrdir=/scratch/
 Default is to use a total of   8 processors:
                                8 via shared-memory
                                1 via Linda
 Entering Link 1 = /pdc/vol/gaussian/G03RevD.01/g03/l1.exe PID=      5622.
  
 Copyright (c) 1988,1990,1992,1993,1995,1998,2003,2004, Gaussian, Inc.
                  All Rights Reserved.
  
 This is the Gaussian(R) 03 program.  It is based on the
 the Gaussian(R) 98 system (copyright 1998, Gaussian, Inc.),
 the Gaussian(R) 94 system (copyright 1995, Gaussian, Inc.),
 the Gaussian 92(TM) system (copyright 1992, Gaussian, Inc.),
 the Gaussian 90(TM) system (copyright 1990, Gaussian, Inc.),
 the Gaussian 88(TM) system (copyright 1988, Gaussian, Inc.),
 the Gaussian 86(TM) system (copyright 1986, Carnegie Mellon
 University), and the Gaussian 82(TM) system (copyright 1983,
 Carnegie Mellon University). Gaussian is a federally registered
 trademark of Gaussian, Inc.
  
 This software contains proprietary and confidential information,
 including trade secrets, belonging to Gaussian, Inc.
  
 This software is provided under written license and may be
 used, copied, transmitted, or stored only in accord with that
 written license.
  
 The following legend is applicable only to US Government
 contracts under FAR:
  
                    RESTRICTED RIGHTS LEGEND
  
 Use, reproduction and disclosure by the US Government is
 subject to restrictions as set forth in subparagraphs (a)
 and (c) of the Commercial Computer Software - Restricted
 Rights clause in FAR 52.227-19.
  
 Gaussian, Inc.
 340 Quinnipiac St., Bldg. 40, Wallingford CT 06492
  
  
 ---------------------------------------------------------------
 Warning -- This program may not be used in any manner that
 competes with the business of Gaussian, Inc. or will provide
 assistance to any competitor of Gaussian, Inc.  The licensee
 of this program is prohibited from giving any competitor of
 Gaussian, Inc. access to this program.  By using this program,
 the user acknowledges that Gaussian, Inc. is engaged in the
 business of creating and licensing software in the field of
 computational chemistry and represents and warrants to the
 licensee that it is not a competitor of Gaussian, Inc. and that
 it will not use this program in any manner prohibited above.
 ---------------------------------------------------------------
  

 Cite this work as:
 Gaussian 03, Revision D.01,
 M. J. Frisch, G. W. Trucks, H. B. Schlegel, G. E. Scuseria, 
 M. A. Robb, J. R. Cheeseman, J. A. Montgomery, Jr., T. Vreven, 
 K. N. Kudin, J. C. Burant, J. M. Millam, S. S. Iyengar, J. Tomasi, 
 V. Barone, B. Mennucci, M. Cossi, G. Scalmani, N. Rega, 
 G. A. Petersson, H. Nakatsuji, M. Hada, M. Ehara, K. Toyota, 
 R. Fukuda, J. Hasegawa, M. Ishida, T. Nakajima, Y. Honda, O. Kitao, 
 H. Nakai, M. Klene, X. Li, J. E. Knox, H. P. Hratchian, J. B. Cross, 
 V. Bakken, C. Adamo, J. Jaramillo, R. Gomperts, R. E. Stratmann, 
 O. Yazyev, A. J. Austin, R. Cammi, C. Pomelli, J. W. Ochterski, 
 P. Y. Ayala, K. Morokuma, G. A. Voth, P. Salvador, J. J. Dannenberg, 
 V. G. Zakrzewski, S. Dapprich, A. D. Daniels, M. C. Strain, 
 O. Farkas, D. K. Malick, A. D. Rabuck, K. Raghavachari, 
 J. B. Foresman, J. V. Ortiz, Q. Cui, A. G. Baboul, S. Clifford, 
 J. Cioslowski, B. B. Stefanov, G. Liu, A. Liashenko, P. Piskorz, 
 I. Komaromi, R. L. Martin, D. J. Fox, T. Keith, M. A. Al-Laham, 
 C. Y. Peng, A. Nanayakkara, M. Challacombe, P. M. W. Gill, 
 B. Johnson, W. Chen, M. W. Wong, C. Gonzalez, and J. A. Pople, 
 Gaussian, Inc., Wallingford CT, 2004.
 
 ******************************************
 Gaussian 03:  AM64L-G03RevD.01 13-Oct-2005
                29-Oct-2010 
 ******************************************
 %nprocshared=8
 Will use up to    8 processors via shared memory.
 %mem=7GB
 %chk=dimethyl-sulfoxide3
 ----------------------------------------------------------------------
 #P B3LYP/aug-cc-pVTZ Int(Grid=Ultrafine) maxdisk=40GB Density=Checkpoint Geom=
 AllCheck Pop=(MK,ReadRadii) iop(6/33=2) iop(6/42=6)
 ----------------------------------------------------------------------
 Warning!  Basis set taken from checkpoint file.
 1/29=7,38=1/1;
 2/40=1/2;
 3/5=7,6=2,11=2,16=1,25=1,30=1,67=1,74=-5,75=5/1,2,3;
 4//1;
 6/7=2,8=2,9=2,10=2,11=2,12=2,15=8,20=101,22=10,28=1,33=2,42=6/1,2;
 99/5=2/99;
 Leave Link    1 at Fri Oct 29 22:57:24 2010, MaxMem=  939524096 cpu:       1.5
 (Enter /pdc/vol/gaussian/G03RevD.01/g03/l101.exe)
 ------------------
 dimethyl-sulfoxide
 ------------------
 Redundant internal coordinates taken from checkpoint file:
 dimethyl-sulfoxide3.chk
 Charge =  0 Multiplicity = 1
 C,0,0.0002426816,0.0001552328,-0.0001507477
 H,0,-0.0012013804,0.0024043344,1.0889392506
 H,0,1.0142178158,-0.0015190991,-0.3963178142
 H,0,-0.5473523262,0.8609180697,-0.3759936293
 S,0,-0.8757459269,-1.4823722557,-0.6139052611
 C,0,0.28375266,-2.7167923901,0.0743301375
 H,0,0.2766271812,-2.6603510632,1.1619396504
 H,0,-0.072310549,-3.6910750489,-0.2512845938
 H,0,1.2777977034,-2.5273968254,-0.3270442977
 O,0,-0.6860583149,-1.5034825447,-2.1066288203
 Recover connectivity data from disk.
                    Isotopes and Nuclear Properties:
 (Nuclear quadrupole moments (NQMom) in fm**2, nuclear magnetic moments (NMagM)
  in nuclear magnetons)

  Atom         1           2           3           4           5           6           7           8           9          10
 IAtWgt=          12           1           1           1          32          12           1           1           1          16
 AtmWgt=  12.0000000   1.0078250   1.0078250   1.0078250  31.9720718  12.0000000   1.0078250   1.0078250   1.0078250  15.9949146
 NucSpn=           0           1           1           1           0           0           1           1           1           0
 AtZEff=  -3.6000000  -1.0000000  -1.0000000  -1.0000000 -13.6000000  -3.6000000  -1.0000000  -1.0000000  -1.0000000  -5.6000000
 NQMom=    0.0000000   0.0000000   0.0000000   0.0000000   0.0000000   0.0000000   0.0000000   0.0000000   0.0000000   0.0000000
 NMagM=    0.0000000   2.7928460   2.7928460   2.7928460   0.0000000   0.0000000   2.7928460   2.7928460   2.7928460   0.0000000
 Leave Link  101 at Fri Oct 29 22:57:29 2010, MaxMem=  939524096 cpu:       0.4
 (Enter /pdc/vol/gaussian/G03RevD.01/g03/l202.exe)
                          Input orientation:                          
 ---------------------------------------------------------------------
 Center     Atomic     Atomic              Coordinates (Angstroms)
 Number     Number      Type              X           Y           Z
 ---------------------------------------------------------------------
    1          6             0        0.000243    0.000155   -0.000151
    2          1             0       -0.001201    0.002404    1.088939
    3          1             0        1.014218   -0.001519   -0.396318
    4          1             0       -0.547352    0.860918   -0.375994
    5         16             0       -0.875746   -1.482372   -0.613905
    6          6             0        0.283753   -2.716792    0.074330
    7          1             0        0.276627   -2.660351    1.161940
    8          1             0       -0.072311   -3.691075   -0.251285
    9          1             0        1.277798   -2.527397   -0.327044
   10          8             0       -0.686058   -1.503483   -2.106629
 ---------------------------------------------------------------------
                    Distance matrix (angstroms):
                    1          2          3          4          5
     1  C    0.000000
     2  H    1.089093   0.000000
     3  H    1.088621   1.799189   0.000000
     4  H    1.087212   1.783635   1.784016   0.000000
     5  S    1.828097   2.422616   2.410857   2.378120   0.000000
     6  C    2.732715   2.916275   2.850929   3.700478   1.828086
     7  H    2.916357   2.678205   3.168847   3.929824   2.422648
     8  H    3.700475   3.929764   3.848948   4.578412   2.378102
     9  H    2.850882   3.168713   2.540538   3.848928   2.410833
    10  O    2.677533   3.598386   2.841126   2.933382   1.504876
                    6          7          8          9         10
     6  C    0.000000
     7  H    1.089096   0.000000
     8  H    1.087213   1.783635   0.000000
     9  H    1.088622   1.799192   1.784006   0.000000
    10  O    2.677543   3.598423   2.933351   2.841136   0.000000
 Stoichiometry    C2H6OS
 Framework group  C1[X(C2H6OS)]
 Deg. of freedom    24
 Full point group                 C1
 Largest Abelian subgroup         C1      NOp   1
 Largest concise Abelian subgroup C1      NOp   1
                         Standard orientation:                         
 ---------------------------------------------------------------------
 Center     Atomic     Atomic              Coordinates (Angstroms)
 Number     Number      Type              X           Y           Z
 ---------------------------------------------------------------------
    1          6             0       -1.366343   -0.806628    0.184683
    2          1             0       -1.339024   -1.781359   -0.300371
    3          1             0       -1.270278   -0.897501    1.265243
    4          1             0       -2.289204   -0.290000   -0.067215
    5         16             0        0.000001    0.232450   -0.444094
    6          6             0        1.366372   -0.806571    0.184686
    7          1             0        1.339181   -1.781296   -0.300394
    8          1             0        2.289208   -0.289856   -0.067133
    9          1             0        1.270259   -0.897478    1.265240
   10          8             0       -0.000043    1.487186    0.386741
 ---------------------------------------------------------------------
 Rotational constants (GHZ):      6.8891705      6.7298266      4.1176283
 Leave Link  202 at Fri Oct 29 22:57:34 2010, MaxMem=  939524096 cpu:       0.5
 (Enter /pdc/vol/gaussian/G03RevD.01/g03/l301.exe)
 Basis read from chk: dimethyl-sulfoxide3.chk (5D, 7F)
 No pseudopotential information found on chk file.
 There are   326 symmetry adapted basis functions of A   symmetry.
 Integral buffers will be    131072 words long.
 Raffenetti 2 integral format.
 Two-electron integral symmetry is turned on.
   326 basis functions,   518 primitive gaussians,   374 cartesian basis functions
    21 alpha electrons       21 beta electrons
       nuclear repulsion energy       182.6864563057 Hartrees.
 IExCor= 402 DFT=T Ex=B+HF Corr=LYP ExCW=0 ScaHFX=  0.200000
 ScaDFX=  0.800000  0.720000  1.000000  0.810000
 IRadAn=      5 IRanWt=     -1 IRanGd=            0 ICorTp=0
 NAtoms=   10 NActive=   10 NUniq=   10 SFac= 7.50D-01 NAtFMM=   80 NAOKFM=F Big=F
 No density basis found on file 20724.
 Leave Link  301 at Fri Oct 29 22:57:39 2010, MaxMem=  939524096 cpu:       0.2
 (Enter /pdc/vol/gaussian/G03RevD.01/g03/l302.exe)
 NPDir=0 NMtPBC=     1 NCelOv=     1 NCel=       1 NClECP=     1 NCelD=      1
         NCelK=      1 NCelE2=     1 NClLst=     1 CellRange=     0.0.
 One-electron integrals computed using PRISM.
 NBasis=   326 RedAO= T  NBF=   326
 NBsUse=   326 1.00D-06 NBFU=   326
 Precomputing XC quadrature grid using
 IXCGrd= 2 IRadAn=           5 IRanWt=          -1 IRanGd=           0.
 NRdTot=     856 NPtTot=      230124 NUsed=      236157 NTot=      236189
 NSgBfM=   374   374   374   374.
 Leave Link  302 at Fri Oct 29 22:57:44 2010, MaxMem=  939524096 cpu:       3.4
 (Enter /pdc/vol/gaussian/G03RevD.01/g03/l303.exe)
 DipDrv:  MaxL=1.
 Leave Link  303 at Fri Oct 29 22:57:50 2010, MaxMem=  939524096 cpu:       0.6
 (Enter /pdc/vol/gaussian/G03RevD.01/g03/l401.exe)
 Harris functional with IExCor=  402 diagonalized for initial guess.
 ExpMin= 2.53D-02 ExpMax= 3.74D+05 ExpMxC= 1.18D+03 IAcc=3 IRadAn=         5 AccDes= 0.00D+00
 HarFok:  IExCor= 402 AccDes= 0.00D+00 IRadAn=         5 IDoV=1
 ScaDFX=  1.000000  1.000000  1.000000  1.000000
 Harris En= -553.417680844349    
 Initial guess orbital symmetries:
       Occupied  (A) (A) (A) (A) (A) (A) (A) (A) (A) (A) (A) (A)
                 (A) (A) (A) (A) (A) (A) (A) (A) (A)
       Virtual   (A) (A) (A) (A) (A) (A) (A) (A) (A) (A) (A) (A)
                 (A) (A) (A) (A) (A) (A) (A) (A) (A) (A) (A) (A)
                 (A) (A) (A) (A) (A) (A) (A) (A) (A) (A) (A) (A)
                 (A) (A) (A) (A) (A) (A) (A) (A) (A) (A) (A) (A)
                 (A) (A) (A) (A) (A) (A) (A) (A) (A) (A) (A) (A)
                 (A) (A) (A) (A) (A) (A) (A) (A) (A) (A) (A) (A)
                 (A) (A) (A) (A) (A) (A) (A) (A) (A) (A) (A) (A)
                 (A) (A) (A) (A) (A) (A) (A) (A) (A) (A) (A) (A)
                 (A) (A) (A) (A) (A) (A) (A) (A) (A) (A) (A) (A)
                 (A) (A) (A) (A) (A) (A) (A) (A) (A) (A) (A) (A)
                 (A) (A) (A) (A) (A) (A) (A) (A) (A) (A) (A) (A)
                 (A) (A) (A) (A) (A) (A) (A) (A) (A) (A) (A) (A)
                 (A) (A) (A) (A) (A) (A) (A) (A) (A) (A) (A) (A)
                 (A) (A) (A) (A) (A) (A) (A) (A) (A) (A) (A) (A)
                 (A) (A) (A) (A) (A) (A) (A) (A) (A) (A) (A) (A)
                 (A) (A) (A) (A) (A) (A) (A) (A) (A) (A) (A) (A)
                 (A) (A) (A) (A) (A) (A) (A) (A) (A) (A) (A) (A)
                 (A) (A) (A) (A) (A) (A) (A) (A) (A) (A) (A) (A)
                 (A) (A) (A) (A) (A) (A) (A) (A) (A) (A) (A) (A)
                 (A) (A) (A) (A) (A) (A) (A) (A) (A) (A) (A) (A)
                 (A) (A) (A) (A) (A) (A) (A) (A) (A) (A) (A) (A)
                 (A) (A) (A) (A) (A) (A) (A) (A) (A) (A) (A) (A)
                 (A) (A) (A) (A) (A) (A) (A) (A) (A) (A) (A) (A)
                 (A) (A) (A) (A) (A) (A) (A) (A) (A) (A) (A) (A)
                 (A) (A) (A) (A) (A) (A) (A) (A) (A) (A) (A) (A)
                 (A) (A) (A) (A) (A)
 The electronic state of the initial guess is 1-A.
 Leave Link  401 at Fri Oct 29 22:57:59 2010, MaxMem=  939524096 cpu:      34.5
 (Enter /pdc/vol/gaussian/G03RevD.01/g03/l601.exe)
 Using densities on the checkpoint file.

 **********************************************************************

            Population analysis using the SCF density.

 **********************************************************************

 Orbital symmetries:
 BldTbl:  Degeneracy threshold= 1.00D-02
       Occupied  (A) (A) (A) (A) (A) (A) (A) (A) (A) (A) (A) (A)
                 (A) (A) (A) (A) (A) (A) (A) (A) (A)
       Virtual   (A) (A) (A) (A) (A) (A) (A) (A) (A) (A) (A) (A)
                 (A) (A) (A) (A) (A) (A) (A) (A) (A) (A) (A) (A)
                 (A) (A) (A) (A) (A) (A) (A) (A) (A) (A) (A) (A)
                 (A) (A) (A) (A) (A) (A) (A) (A) (A) (A) (A) (A)
                 (A) (A) (A) (A) (A) (A) (A) (A) (A) (A) (A) (A)
                 (A) (A) (A) (A) (A) (A) (A) (A) (A) (A) (A) (A)
                 (A) (A) (A) (A) (A) (A) (A) (A) (A) (A) (A) (A)
                 (A) (A) (A) (A) (A) (A) (A) (A) (A) (A) (A) (A)
                 (A) (A) (A) (A) (A) (A) (A) (A) (A) (A) (A) (A)
                 (A) (A) (A) (A) (A) (A) (A) (A) (A) (A) (A) (A)
                 (A) (A) (A) (A) (A) (A) (A) (A) (A) (A) (A) (A)
                 (A) (A) (A) (A) (A) (A) (A) (A) (A) (A) (A) (A)
                 (A) (A) (A) (A) (A) (A) (A) (A) (A) (A) (A) (A)
                 (A) (A) (A) (A) (A) (A) (A) (A) (A) (A) (A) (A)
                 (A) (A) (A) (A) (A) (A) (A) (A) (A) (A) (A) (A)
                 (A) (A) (A) (A) (A) (A) (A) (A) (A) (A) (A) (A)
                 (A) (A) (A) (A) (A) (A) (A) (A) (A) (A) (A) (A)
                 (A) (A) (A) (A) (A) (A) (A) (A) (A) (A) (A) (A)
                 (A) (A) (A) (A) (A) (A) (A) (A) (A) (A) (A) (A)
                 (A) (A) (A) (A) (A) (A) (A) (A) (A) (A) (A) (A)
                 (A) (A) (A) (A) (A) (A) (A) (A) (A) (A) (A) (A)
                 (A) (A) (A) (A) (A) (A) (A) (A) (A) (A) (A) (A)
                 (A) (A) (A) (A) (A) (A) (A) (A) (A) (A) (A) (A)
                 (A) (A) (A) (A) (A) (A) (A) (A) (A) (A) (A) (A)
                 (A) (A) (A) (A) (A) (A) (A) (A) (A) (A) (A) (A)
                 (A) (A) (A) (A) (A)
 The electronic state is 1-A.
 Alpha  occ. eigenvalues --  -88.18858 -18.95887 -10.13935 -10.13935  -7.75202
 Alpha  occ. eigenvalues --   -5.77740  -5.77560  -5.77473  -1.03362  -0.81287
 Alpha  occ. eigenvalues --   -0.76540  -0.63546  -0.51696  -0.51568  -0.50327
 Alpha  occ. eigenvalues --   -0.48994  -0.47543  -0.45030  -0.41606  -0.36459
 Alpha  occ. eigenvalues --   -0.29373
 Alpha virt. eigenvalues --   -0.05822  -0.05304  -0.04463  -0.03303  -0.01082
 Alpha virt. eigenvalues --   -0.00871  -0.00584   0.01879   0.02563   0.03177
 Alpha virt. eigenvalues --    0.04018   0.04761   0.05216   0.05702   0.06451
 Alpha virt. eigenvalues --    0.06512   0.06602   0.06794   0.08408   0.08629
 Alpha virt. eigenvalues --    0.08738   0.09173   0.09743   0.12267   0.12852
 Alpha virt. eigenvalues --    0.14382   0.14932   0.16448   0.16777   0.18670
 Alpha virt. eigenvalues --    0.19355   0.21284   0.21580   0.21761   0.22387
 Alpha virt. eigenvalues --    0.23294   0.23817   0.24712   0.25212   0.25233
 Alpha virt. eigenvalues --    0.25636   0.26030   0.26808   0.27670   0.27746
 Alpha virt. eigenvalues --    0.28406   0.29034   0.29036   0.30927   0.31069
 Alpha virt. eigenvalues --    0.33051   0.34198   0.34806   0.35784   0.36910
 Alpha virt. eigenvalues --    0.37807   0.39238   0.40032   0.42120   0.42431
 Alpha virt. eigenvalues --    0.43147   0.43367   0.46034   0.46918   0.47206
 Alpha virt. eigenvalues --    0.48461   0.48957   0.50029   0.50898   0.53460
 Alpha virt. eigenvalues --    0.54774   0.56174   0.57609   0.58151   0.60901
 Alpha virt. eigenvalues --    0.61909   0.62572   0.62718   0.63814   0.64200
 Alpha virt. eigenvalues --    0.64570   0.65608   0.67146   0.68251   0.69476
 Alpha virt. eigenvalues --    0.69910   0.71433   0.71777   0.72412   0.72423
 Alpha virt. eigenvalues --    0.73578   0.75156   0.76564   0.76873   0.78202
 Alpha virt. eigenvalues --    0.78502   0.80801   0.81161   0.84182   0.85847
 Alpha virt. eigenvalues --    0.87323   0.88713   0.89233   0.89652   0.92308
 Alpha virt. eigenvalues --    0.92464   0.94543   0.95250   0.96199   0.97220
 Alpha virt. eigenvalues --    0.98408   0.98438   1.01144   1.01348   1.01930
 Alpha virt. eigenvalues --    1.03890   1.04630   1.05781   1.06950   1.08307
 Alpha virt. eigenvalues --    1.08993   1.13189   1.14096   1.14760   1.15062
 Alpha virt. eigenvalues --    1.16218   1.16610   1.17600   1.18219   1.22016
 Alpha virt. eigenvalues --    1.22604   1.23928   1.28885   1.29291   1.31596
 Alpha virt. eigenvalues --    1.32806   1.33536   1.35171   1.35418   1.36021
 Alpha virt. eigenvalues --    1.37683   1.39703   1.40015   1.41336   1.42334
 Alpha virt. eigenvalues --    1.46937   1.48247   1.48810   1.49174   1.49518
 Alpha virt. eigenvalues --    1.49681   1.50563   1.52206   1.53709   1.56140
 Alpha virt. eigenvalues --    1.57277   1.59277   1.62386   1.63679   1.72071
 Alpha virt. eigenvalues --    1.72950   1.74315   1.75502   1.78304   1.82236
 Alpha virt. eigenvalues --    1.85523   1.87066   1.88080   1.88141   1.89136
 Alpha virt. eigenvalues --    1.90162   1.91216   1.92198   1.93080   1.95724
 Alpha virt. eigenvalues --    2.00085   2.00852   2.01632   2.03870   2.07099
 Alpha virt. eigenvalues --    2.08578   2.12018   2.13919   2.17073   2.17725
 Alpha virt. eigenvalues --    2.19953   2.26341   2.28471   2.29376   2.32341
 Alpha virt. eigenvalues --    2.35754   2.36243   2.38414   2.39696   2.41100
 Alpha virt. eigenvalues --    2.45892   2.51389   2.57738   2.64901   2.82823
 Alpha virt. eigenvalues --    2.88267   2.91321   2.92890   2.94446   2.99433
 Alpha virt. eigenvalues --    3.01480   3.04764   3.05404   3.05716   3.07947
 Alpha virt. eigenvalues --    3.11213   3.13552   3.13765   3.17376   3.18915
 Alpha virt. eigenvalues --    3.18964   3.20411   3.23717   3.25207   3.25520
 Alpha virt. eigenvalues --    3.30167   3.31816   3.38483   3.40800   3.43055
 Alpha virt. eigenvalues --    3.46661   3.48242   3.52395   3.56717   3.61667
 Alpha virt. eigenvalues --    3.62666   3.65444   3.65586   3.67543   3.68161
 Alpha virt. eigenvalues --    3.70101   3.78287   3.78506   3.79745   3.86064
 Alpha virt. eigenvalues --    3.87790   3.93217   3.99680   4.02275   4.02393
 Alpha virt. eigenvalues --    4.04962   4.05457   4.09239   4.10423   4.11061
 Alpha virt. eigenvalues --    4.15443   4.19084   4.25112   4.27924   4.30378
 Alpha virt. eigenvalues --    4.31035   4.44603   4.46720   4.50393   4.50880
 Alpha virt. eigenvalues --    4.54525   4.59341   4.64922   4.65924   4.68210
 Alpha virt. eigenvalues --    4.69363   4.71460   4.76877   4.78422   4.84017
 Alpha virt. eigenvalues --    4.95476   4.99953   5.03847   5.04066   5.05213
 Alpha virt. eigenvalues --    5.05579   5.13593   5.15250   5.15834   5.38189
 Alpha virt. eigenvalues --    5.46131   5.48599   5.49921   5.53322   5.55781
 Alpha virt. eigenvalues --    5.95863   5.96029   6.06566   6.10555   6.11616
 Alpha virt. eigenvalues --    6.15013   6.17880   6.20467   6.22381   6.25132
 Alpha virt. eigenvalues --    6.26711   6.42078   6.44966   6.67079   6.73054
 Alpha virt. eigenvalues --    6.79127   8.50490  11.40191  15.95890  16.00901
 Entering OneElI...
 OneElI was handed939324025 working-precision words.
 Multipole integrals L=0 to 4 MinM= 0 MaxM= 0.
 Requested accuracy = 0.1000D-12
 PrsmSu:  NPrtUS=   1 ThrOK=F
 PRISM was handed   938795560 working-precision words and  6318 shell-pairs
 Electronic moments (au):
   -42.00000000     0.00005511    -1.60785513    -0.22170614
  -163.22934155  -150.62415351   -54.03569717     0.00010555
     0.00002207    -1.25947808    -0.01222437   -60.47758256
   -16.49539239     0.01052027   206.98910294   -44.98073953
     0.00025369     6.22467723   -59.52076677     0.00066560
 -1952.49248602 -1385.02754684  -283.80115967    -0.00662104
    -0.00928502     0.00107326  -129.10657671     0.00057711
    37.44311392  -567.11041162  -215.79216391  -200.96016342
    62.32564536     0.00703998     0.00026983
 Electronic spatial extent (au):  <R**2>=   367.8892
 Nuclear    moments (au):
    42.00000000     0.00000000     0.00000000     0.00000000
   141.76297603   123.16916992    29.11318352     0.00000000
     0.00000000     0.00000000     0.01218406    50.06095195
    21.14302398    -0.00976958  -205.10888124    43.45476700
    -0.00044063    -6.84751501    54.13192570    -0.00041824
  1382.22584812   837.95514330    75.96581489     0.00699199
     0.00993563    -0.00281893   133.82616661    -0.00111875
   -41.28507138   375.38396977    80.35600477    79.51834905
   -62.21660194    -0.00773263    -0.00038660
 Total      moments (au):
     0.00000000     0.00005511    -1.60785513    -0.22170614
   -21.46636553   -27.45498359   -24.92251366     0.00010555
     0.00002207    -1.25947808    -0.00004030   -10.41663061
     4.64763159     0.00075069     1.88022169    -1.52597253
    -0.00018694    -0.62283777    -5.38884108     0.00024736
  -570.26663790  -547.07240354  -207.83534478     0.00037095
     0.00065060    -0.00174567     4.71958990    -0.00054164
    -3.84195746  -191.72644185  -135.43615914  -121.44181437
     0.10904342    -0.00069265    -0.00011678
 Charge=     0.0000 electrons
 Dipole moment (field-independent basis, Debye):
    X=     0.0001    Y=    -4.0868    Z=    -0.5635  Tot=     4.1254
 Quadrupole moment (field-independent basis, Debye-Ang):
   XX=   -28.8730   YY=   -36.9279   ZZ=   -33.5216
   XY=     0.0001   XZ=     0.0000   YZ=    -1.6940
 Traceless Quadrupole moment (field-independent basis, Debye-Ang):
   XX=     4.2345   YY=    -3.8204   ZZ=    -0.4141
   XY=     0.0001   XZ=     0.0000   YZ=    -1.6940
 Octapole moment (field-independent basis, Debye-Ang**2):
  XXX=     0.0000  YYY=    -7.4142  ZZZ=     3.3080  XYY=     0.0005
  XXY=     1.3383  XXZ=    -1.0861  XZZ=    -0.0001  YZZ=    -0.4433
  YYZ=    -3.8356  XYZ=     0.0002
 Hexadecapole moment (field-independent basis, Debye-Ang**3):
 XXXX=  -214.7897 YYYY=  -206.0537 ZZZZ=   -78.2808 XXXY=     0.0001
 XXXZ=     0.0002 YYYX=    -0.0007 YYYZ=     1.7776 ZZZX=    -0.0002
 ZZZY=    -1.4471 XXYY=   -72.2134 XXZZ=   -51.0117 YYZZ=   -45.7408
 XXYZ=     0.0411 YYXZ=    -0.0003 ZZXY=     0.0000
 N-N= 1.826864563057D+02 E-N=-1.673321597086D+03  KE= 5.510636516111D+02
 Entering OneElI...
 OneElI was handed939077297 working-precision words.
 Calculate electrostatic properties
    NBasis =   326  MinDer = 0  MaxDer = 0
    NGrid  =    10  NMatD  =   1
 Requested accuracy = 0.1000D-12
 PrsmSu:  NPrtUS=   8 ThrOK=T
 PRISM was handed   117186497 working-precision words and  6249 shell-pairs
 PRISM was handed   117186497 working-precision words and  6249 shell-pairs
 PRISM was handed   117186497 working-precision words and  6249 shell-pairs
 PRISM was handed   117186497 working-precision words and  6249 shell-pairs
 PRISM was handed   117186497 working-precision words and  6249 shell-pairs
 PRISM was handed   117186497 working-precision words and  6249 shell-pairs
 PRISM was handed   117186497 working-precision words and  6249 shell-pairs
 PRISM was handed   117186497 working-precision words and  6249 shell-pairs
 --------------------------------------------------------
       Center         ----      EFG at Nuclei      ----
                      3XX-RR        3YY-RR        3ZZ-RR
 --------------------------------------------------------
     1   Atom       -0.052321     -0.005614      0.057935
     2   Atom        0.142512     -0.200617      0.058105
     3   Atom        0.136309      0.141899     -0.278209
     4   Atom       -0.167012      0.045816      0.121196
     5   Atom       -0.894669     -1.015039      1.909708
     6   Atom       -0.052327     -0.005602      0.057930
     7   Atom        0.142513     -0.200607      0.058094
     8   Atom       -0.166994      0.045783      0.121211
     9   Atom        0.136305      0.141896     -0.278202
    10   Atom        0.634545     -0.966471      0.331926
 --------------------------------------------------------
                        XY            XZ            YZ
 --------------------------------------------------------
     1   Atom       -0.126424      0.096959      0.056690
     2   Atom        0.011643      0.009308     -0.173137
     3   Atom        0.001420     -0.041919      0.036655
     4   Atom        0.172435     -0.084880      0.051903
     5   Atom       -0.000008     -0.000001     -0.215744
     6   Atom        0.126418     -0.096958      0.056683
     7   Atom       -0.011600     -0.009287     -0.173142
     8   Atom       -0.172458      0.084851      0.051896
     9   Atom       -0.001423      0.041937      0.036670
    10   Atom        0.000096      0.000046     -1.300167
 --------------------------------------------------------


 ---------------------------------------------------------------------------------
              Nuclear Quadrupole in Principal Axis System
 ---------------------------------------------------------------------------------

       Atom             a.u.   MegaHertz   Gauss  10(-4) cm-1        Axes

              Baa    -0.2045   -27.442    -9.792    -9.154  0.7226  0.5706 -0.3902
     1 C(13)  Bbb     0.0851    11.417     4.074     3.808 -0.2749  0.7552  0.5951
              Bcc     0.1194    16.025     5.718     5.345  0.6342 -0.3227  0.7026
 
              Baa    -0.2879  -153.597   -54.807   -51.235 -0.0339  0.8934  0.4480
     2 H(1)   Bbb     0.1407    75.070    26.787    25.041  0.8019  0.2918 -0.5213
              Bcc     0.1472    78.528    28.021    26.194  0.5965 -0.3416  0.7263
 
              Baa    -0.2855  -152.351   -54.363   -50.819  0.0988 -0.0853  0.9914
     3 H(1)   Bbb     0.1396    74.480    26.576    24.844  0.9240  0.3777 -0.0596
              Bcc     0.1459    77.872    27.787    25.975 -0.3694  0.9220  0.1162
 
              Baa    -0.2874  -153.350   -54.719   -51.152  0.8474 -0.4753  0.2364
     4 H(1)   Bbb     0.1395    74.433    26.559    24.828  0.5222  0.6662 -0.5324
              Bcc     0.1479    78.918    28.160    26.324  0.0955  0.5746  0.8128
 
              Baa    -1.0309   -42.265   -15.081   -14.098  0.0001  0.9973  0.0732
     5 S(33)  Bbb    -0.8947   -36.681   -13.089   -12.235  1.0000 -0.0001  0.0000
              Bcc     1.9255    78.945    28.170    26.333  0.0000 -0.0732  0.9973
 
              Baa    -0.2045   -27.441    -9.792    -9.153  0.7226 -0.5705  0.3902
     6 C(13)  Bbb     0.0851    11.417     4.074     3.808  0.2748  0.7552  0.5951
              Bcc     0.1194    16.024     5.718     5.345 -0.6342 -0.3228  0.7025
 
              Baa    -0.2879  -153.595   -54.806   -51.234  0.0337  0.8934  0.4480
     7 H(1)   Bbb     0.1407    75.068    26.786    25.040  0.8019 -0.2918  0.5214
              Bcc     0.1472    78.526    28.020    26.194 -0.5965 -0.3417  0.7262
 
              Baa    -0.2874  -153.350   -54.719   -51.152  0.8474  0.4754 -0.2363
     8 H(1)   Bbb     0.1395    74.432    26.559    24.828 -0.5223  0.6663 -0.5323
              Bcc     0.1479    78.917    28.160    26.324 -0.0956  0.5745  0.8129
 
              Baa    -0.2855  -152.351   -54.363   -50.819 -0.0988 -0.0854  0.9914
     9 H(1)   Bbb     0.1396    74.479    26.576    24.844  0.9240 -0.3777  0.0596
              Bcc     0.1459    77.872    27.787    25.975  0.3694  0.9220  0.1162
 
              Baa    -1.7705   128.113    45.714    42.734  0.0000  0.8505  0.5260
    10 O(17)  Bbb     0.6345   -45.915   -16.384   -15.316  1.0000  0.0000  0.0000
              Bcc     1.1360   -82.197   -29.330   -27.418  0.0000 -0.5260  0.8505
 

 ---------------------------------------------------------------------------------

 No NMR shielding tensors so no spin-rotation constants.
 Leave Link  601 at Fri Oct 29 22:58:04 2010, MaxMem=  939524096 cpu:       2.2
 (Enter /pdc/vol/gaussian/G03RevD.01/g03/l602.exe)
 Merz-Kollman atomic radii used.
 Read replacement radii for each type of atom:
 Rad(19) =   2.800000000000D+00
 Rad(20) =   2.400000000000D+00
 Rad(31) =   2.100000000000D+00
 Rad(32) =   2.100000000000D+00
 Rad(33) =   2.050000000000D+00
 Rad(34) =   1.900000000000D+00
 Rad(37) =   2.900000000000D+00
 Rad(40) =   2.300000000000D+00
 Rad(39) =   2.400000000000D+00
 Rad(47) =   2.100000000000D+00
 Rad(29) =   2.000000000000D+00
 Rad(30) =   2.100000000000D+00
 Rad(24) =   2.050000000000D+00
 Rad(55) =   3.000000000000D+00
 Rad(56) =   2.700000000000D+00
 Rad(57) =   2.500000000000D+00
 Rad(52) =   2.100000000000D+00
 Rad(80) =   2.050000000000D+00
 Rad(22) =   2.150000000000D+00
 Rad(23) =   2.050000000000D+00
 Rad(25) =   2.050000000000D+00
 Rad(28) =   2.000000000000D+00
 Rad(30) =   2.100000000000D+00
 Rad(21) =   2.300000000000D+00
 Rad(51) =   2.200000000000D+00
 Rad(82) =   2.300000000000D+00
 Rad(50) =   2.250000000000D+00
 Rad(49) =   2.200000000000D+00
 Rad(26) =   2.050000000000D+00
 Rad(38) =   2.550000000000D+00
 Rad(81) =   2.400000000000D+00
 Rad(53) =   2.100000000000D+00
 Rad(2) =   1.400000000000D+00
 Rad(10) =   1.540000000000D+00
 Rad(18) =   1.880000000000D+00
 Rad(36) =   2.020000000000D+00
 Atom Element Radius
    1     6    1.50
    2     1    1.20
    3     1    1.20
    4     1    1.20
    5    16    1.75
    6     6    1.50
    7     1    1.20
    8     1    1.20
    9     1    1.20
   10     8    1.40
 Generate VDW surfaces: Layer= 4 Dens= 6 Start= 1.400 Inc= 0.200

 **********************************************************************

            Electrostatic Properties Using The SCF Density

 **********************************************************************

       Atomic Center    1 is at  -1.366343 -0.806628  0.184683
       Atomic Center    2 is at  -1.339024 -1.781359 -0.300371
       Atomic Center    3 is at  -1.270278 -0.897501  1.265243
       Atomic Center    4 is at  -2.289204 -0.290000 -0.067215
       Atomic Center    5 is at   0.000001  0.232450 -0.444094
       Atomic Center    6 is at   1.366372 -0.806571  0.184686
       Atomic Center    7 is at   1.339181 -1.781296 -0.300394
       Atomic Center    8 is at   2.289208 -0.289856 -0.067133
       Atomic Center    9 is at   1.270259 -0.897478  1.265240
       Atomic Center   10 is at  -0.000043  1.487186  0.386741
      ESP Fit Center   11 is at  -1.985513  0.825991  1.351380
      ESP Fit Center   12 is at  -2.358233  0.630373  1.351380
      ESP Fit Center   13 is at  -3.112429 -0.806628  1.351380
      ESP Fit Center   14 is at  -3.061691 -1.224494  1.351380
      ESP Fit Center   15 is at  -2.912425 -1.618075  1.351380
      ESP Fit Center   16 is at  -2.673307 -1.964497  1.351380
      ESP Fit Center   17 is at  -2.358233 -2.243629  1.351380
      ESP Fit Center   18 is at  -1.985513 -2.439247  1.351380
      ESP Fit Center   19 is at  -3.204929 -1.426120  0.988318
      ESP Fit Center   20 is at  -3.028771 -1.806878  0.988318
      ESP Fit Center   21 is at  -2.774881 -2.140866  0.988318
      ESP Fit Center   22 is at  -2.455128 -2.412466  0.988318
      ESP Fit Center   23 is at  -2.084465 -2.608979  0.988318
      ESP Fit Center   24 is at  -0.457561 -2.520771  0.988318
      ESP Fit Center   25 is at  -0.110318 -2.285334  0.988318
      ESP Fit Center   26 is at  -3.167190 -1.806180  0.594373
      ESP Fit Center   27 is at  -2.929118 -2.148227  0.594373
      ESP Fit Center   28 is at  -2.627066 -2.435348  0.594373
      ESP Fit Center   29 is at  -3.306490 -1.610263  0.184683
      ESP Fit Center   30 is at  -3.112429 -1.973325  0.184683
      ESP Fit Center   31 is at  -3.167190 -1.806180 -0.225007
      ESP Fit Center   32 is at  -3.028771 -1.806878 -0.618952
      ESP Fit Center   33 is at  -2.912425 -1.618075 -0.982014
      ESP Fit Center   34 is at  -2.062311 -0.404810 -1.755464
      ESP Fit Center   35 is at  -2.169978 -0.806628 -1.755464
      ESP Fit Center   36 is at  -2.062311 -1.208445 -1.755464
      ESP Fit Center   37 is at  -1.776032 -0.806628 -1.874966
      ESP Fit Center   38 is at  -1.571187 -1.161430 -1.874966
      ESP Fit Center   39 is at  -2.054918 -2.729355  0.887568
      ESP Fit Center   40 is at  -1.664119 -2.923949  0.887568
      ESP Fit Center   41 is at  -1.229415 -2.964231  0.887568
      ESP Fit Center   42 is at  -0.809514 -2.844758  0.887568
      ESP Fit Center   43 is at  -0.461126 -2.581668  0.887568
      ESP Fit Center   44 is at  -2.405558 -2.770957  0.539629
      ESP Fit Center   45 is at  -2.066485 -3.041359  0.539629
      ESP Fit Center   46 is at  -1.662775 -3.199803  0.539629
      ESP Fit Center   47 is at  -1.230298 -3.232213  0.539629
      ESP Fit Center   48 is at  -0.807481 -3.135708  0.539629
      ESP Fit Center   49 is at  -0.431895 -2.918863  0.539629
      ESP Fit Center   50 is at  -0.136911 -2.600946  0.539629
      ESP Fit Center   51 is at  -2.744371 -2.592736  0.134445
      ESP Fit Center   52 is at  -2.486485 -2.928820  0.134445
      ESP Fit Center   53 is at  -2.150402 -3.186706  0.134445
      ESP Fit Center   54 is at  -1.759024 -3.348820  0.134445
      ESP Fit Center   55 is at  -1.339024 -3.404114  0.134445
      ESP Fit Center   56 is at  -0.919024 -3.348820  0.134445
      ESP Fit Center   57 is at  -0.527646 -3.186706  0.134445
      ESP Fit Center   58 is at  -0.191563 -2.928820  0.134445
      ESP Fit Center   59 is at  -2.901049 -2.399808 -0.300371
      ESP Fit Center   60 is at  -2.698173 -2.768838 -0.300371
      ESP Fit Center   61 is at  -2.409896 -3.075821 -0.300371
      ESP Fit Center   62 is at  -2.054333 -3.301468 -0.300371
      ESP Fit Center   63 is at  -1.653825 -3.431601 -0.300371
      ESP Fit Center   64 is at  -1.233536 -3.458044 -0.300371
      ESP Fit Center   65 is at  -0.819876 -3.379134 -0.300371
      ESP Fit Center   66 is at  -0.438835 -3.199830 -0.300371
      ESP Fit Center   67 is at  -0.114357 -2.931398 -0.300371
      ESP Fit Center   68 is at  -2.906485 -2.201359 -0.735187
      ESP Fit Center   69 is at  -2.744371 -2.592736 -0.735187
      ESP Fit Center   70 is at  -2.486485 -2.928820 -0.735187
      ESP Fit Center   71 is at  -2.150402 -3.186706 -0.735187
      ESP Fit Center   72 is at  -1.759024 -3.348820 -0.735187
      ESP Fit Center   73 is at  -1.339024 -3.404114 -0.735187
      ESP Fit Center   74 is at  -0.919024 -3.348820 -0.735187
      ESP Fit Center   75 is at  -0.527646 -3.186706 -0.735187
      ESP Fit Center   76 is at  -0.191563 -2.928820 -0.735187
      ESP Fit Center   77 is at  -2.777696 -1.998204 -1.140371
      ESP Fit Center   78 is at  -2.649864 -2.412626 -1.140371
      ESP Fit Center   79 is at  -2.405558 -2.770957 -1.140371
      ESP Fit Center   80 is at  -2.066485 -3.041359 -1.140371
      ESP Fit Center   81 is at  -1.662775 -3.199803 -1.140371
      ESP Fit Center   82 is at  -1.230298 -3.232213 -1.140371
      ESP Fit Center   83 is at  -0.807481 -3.135708 -1.140371
      ESP Fit Center   84 is at  -0.431895 -2.918863 -1.140371
      ESP Fit Center   85 is at  -0.136911 -2.600946 -1.140371
      ESP Fit Center   86 is at  -2.506737 -1.563075 -1.488311
      ESP Fit Center   87 is at  -2.506737 -1.999642 -1.488311
      ESP Fit Center   88 is at  -2.349031 -2.406728 -1.488311
      ESP Fit Center   89 is at  -2.054918 -2.729355 -1.488311
      ESP Fit Center   90 is at  -1.664119 -2.923949 -1.488311
      ESP Fit Center   91 is at  -1.229415 -2.964231 -1.488311
      ESP Fit Center   92 is at  -0.809514 -2.844758 -1.488311
      ESP Fit Center   93 is at  -0.461126 -2.581668 -1.488311
      ESP Fit Center   94 is at  -0.231304 -2.210492 -1.488311
      ESP Fit Center   95 is at  -0.499024 -1.781359 -1.755294
      ESP Fit Center   96 is at  -2.066485 -1.361359 -1.755294
      ESP Fit Center   97 is at  -2.179024 -1.781359 -1.755294
      ESP Fit Center   98 is at  -2.066485 -2.201359 -1.755294
      ESP Fit Center   99 is at  -1.759024 -2.508820 -1.755294
      ESP Fit Center  100 is at  -1.339024 -2.621359 -1.755294
      ESP Fit Center  101 is at  -0.919024 -2.508820 -1.755294
      ESP Fit Center  102 is at  -0.611563 -2.201359 -1.755294
      ESP Fit Center  103 is at  -0.904208 -1.781359 -1.923127
      ESP Fit Center  104 is at  -1.121616 -1.404797 -1.923127
      ESP Fit Center  105 is at  -1.556432 -1.404797 -1.923127
      ESP Fit Center  106 is at  -1.773840 -1.781359 -1.923127
      ESP Fit Center  107 is at  -1.556432 -2.157920 -1.923127
      ESP Fit Center  108 is at  -1.121616 -2.157920 -1.923127
      ESP Fit Center  109 is at  -1.339024 -1.781359 -1.980371
      ESP Fit Center  110 is at  -1.270278 -0.897501  2.945243
      ESP Fit Center  111 is at  -0.835462 -0.897501  2.887999
      ESP Fit Center  112 is at  -1.052870 -0.520939  2.887999
      ESP Fit Center  113 is at  -1.487686 -0.520939  2.887999
      ESP Fit Center  114 is at  -1.705094 -0.897501  2.887999
      ESP Fit Center  115 is at  -1.487686 -1.274062  2.887999
      ESP Fit Center  116 is at  -1.052870 -1.274062  2.887999
      ESP Fit Center  117 is at  -0.430278 -0.897501  2.720166
      ESP Fit Center  118 is at  -0.542817 -0.477501  2.720166
      ESP Fit Center  119 is at  -0.850278 -0.170039  2.720166
      ESP Fit Center  120 is at  -1.270278 -0.057501  2.720166
      ESP Fit Center  121 is at  -1.690278 -0.170039  2.720166
      ESP Fit Center  122 is at  -1.997740 -0.477501  2.720166
      ESP Fit Center  123 is at  -2.110278 -0.897501  2.720166
      ESP Fit Center  124 is at  -1.997740 -1.317501  2.720166
      ESP Fit Center  125 is at  -1.690278 -1.624962  2.720166
      ESP Fit Center  126 is at  -1.270278 -1.737501  2.720166
      ESP Fit Center  127 is at  -0.850278 -1.624962  2.720166
      ESP Fit Center  128 is at  -0.542817 -1.317501  2.720166
      ESP Fit Center  129 is at  -0.082339 -0.897501  2.453183
      ESP Fit Center  130 is at  -0.162558 -0.468367  2.453183
      ESP Fit Center  131 is at  -0.392381 -0.097191  2.453183
      ESP Fit Center  132 is at  -0.740768  0.165899  2.453183
      ESP Fit Center  133 is at  -1.160669  0.285371  2.453183
      ESP Fit Center  134 is at  -1.595373  0.245090  2.453183
      ESP Fit Center  135 is at  -1.986172  0.050495  2.453183
      ESP Fit Center  136 is at  -2.280285 -0.272131  2.453183
      ESP Fit Center  137 is at  -2.437991 -0.679217  2.453183
      ESP Fit Center  138 is at  -2.437991 -1.115784  2.453183
      ESP Fit Center  139 is at  -2.280285 -1.522870  2.453183
      ESP Fit Center  140 is at  -1.986172 -1.845497  2.453183
      ESP Fit Center  141 is at  -1.595373 -2.040091  2.453183
      ESP Fit Center  142 is at  -1.160669 -2.080372  2.453183
      ESP Fit Center  143 is at  -0.740768 -1.960900  2.453183
      ESP Fit Center  144 is at  -0.392381 -1.697810  2.453183
      ESP Fit Center  145 is at  -0.162558 -1.326634  2.453183
      ESP Fit Center  146 is at  -0.068165 -0.077913  2.105243
      ESP Fit Center  147 is at  -0.363149  0.240004  2.105243
      ESP Fit Center  148 is at  -0.738735  0.456849  2.105243
      ESP Fit Center  149 is at  -1.161552  0.553354  2.105243
      ESP Fit Center  150 is at  -1.594029  0.520944  2.105243
      ESP Fit Center  151 is at  -1.997740  0.362499  2.105243
      ESP Fit Center  152 is at  -2.336812  0.092098  2.105243
      ESP Fit Center  153 is at  -2.581118 -0.266233  2.105243
      ESP Fit Center  154 is at  -2.708951 -0.680656  2.105243
      ESP Fit Center  155 is at  -2.708951 -1.114346  2.105243
      ESP Fit Center  156 is at  -2.581118 -1.528768  2.105243
      ESP Fit Center  157 is at  -2.336812 -1.887099  2.105243
      ESP Fit Center  158 is at  -1.997740 -2.157501  2.105243
      ESP Fit Center  159 is at  -1.594029 -2.315945  2.105243
      ESP Fit Center  160 is at  -1.161552 -2.348355  2.105243
      ESP Fit Center  161 is at  -0.738735 -2.251850  2.105243
      ESP Fit Center  162 is at  -0.363149 -2.035005  2.105243
      ESP Fit Center  163 is at  -0.068165 -1.717088  2.105243
      ESP Fit Center  164 is at  -1.270278  0.725255  1.700059
      ESP Fit Center  165 is at  -1.690278  0.669961  1.700059
      ESP Fit Center  166 is at  -2.081656  0.507847  1.700059
      ESP Fit Center  167 is at  -2.417740  0.249961  1.700059
      ESP Fit Center  168 is at  -2.675626 -0.086123  1.700059
      ESP Fit Center  169 is at  -2.837740 -0.477501  1.700059
      ESP Fit Center  170 is at  -2.893034 -0.897501  1.700059
      ESP Fit Center  171 is at  -2.837740 -1.317501  1.700059
      ESP Fit Center  172 is at  -2.675626 -1.708878  1.700059
      ESP Fit Center  173 is at  -2.417740 -2.044962  1.700059
      ESP Fit Center  174 is at  -2.081656 -2.302848  1.700059
      ESP Fit Center  175 is at  -1.690278 -2.464962  1.700059
      ESP Fit Center  176 is at  -1.270278 -2.520256  1.700059
      ESP Fit Center  177 is at  -0.850278 -2.464962  1.700059
      ESP Fit Center  178 is at  -0.458901 -2.302848  1.700059
      ESP Fit Center  179 is at  -0.122817 -2.044962  1.700059
      ESP Fit Center  180 is at  -0.370089 -2.315972  1.265243
      ESP Fit Center  181 is at  -0.045611 -2.047540  1.265243
      ESP Fit Center  182 is at  -2.709204  0.437461  1.387708
      ESP Fit Center  183 is at  -3.016666  0.130000  1.387708
      ESP Fit Center  184 is at  -3.129204 -0.290000  1.387708
      ESP Fit Center  185 is at  -2.179595  0.892872  1.120724
      ESP Fit Center  186 is at  -2.614299  0.852591  1.120724
      ESP Fit Center  187 is at  -3.005098  0.657996  1.120724
      ESP Fit Center  188 is at  -3.299211  0.335370  1.120724
      ESP Fit Center  189 is at  -3.456917 -0.071717  1.120724
      ESP Fit Center  190 is at  -3.456917 -0.508283  1.120724
      ESP Fit Center  191 is at  -3.299211 -0.915369  1.120724
      ESP Fit Center  192 is at  -2.180478  1.160854  0.772785
      ESP Fit Center  193 is at  -2.612955  1.128445  0.772785
      ESP Fit Center  194 is at  -3.016666  0.970000  0.772785
      ESP Fit Center  195 is at  -3.355738  0.699599  0.772785
      ESP Fit Center  196 is at  -3.600044  0.341267  0.772785
      ESP Fit Center  197 is at  -3.727877 -0.073155  0.772785
      ESP Fit Center  198 is at  -3.727877 -0.506845  0.772785
      ESP Fit Center  199 is at  -3.600044 -0.921267  0.772785
      ESP Fit Center  200 is at  -3.355738 -1.279599  0.772785
      ESP Fit Center  201 is at  -2.289204  1.332755  0.367601
      ESP Fit Center  202 is at  -2.709204  1.277461  0.367601
      ESP Fit Center  203 is at  -3.100582  1.115347  0.367601
      ESP Fit Center  204 is at  -3.436666  0.857461  0.367601
      ESP Fit Center  205 is at  -3.694552  0.521378  0.367601
      ESP Fit Center  206 is at  -3.856666  0.130000  0.367601
      ESP Fit Center  207 is at  -3.911960 -0.290000  0.367601
      ESP Fit Center  208 is at  -3.856666 -0.710000  0.367601
      ESP Fit Center  209 is at  -3.694552 -1.101378  0.367601
      ESP Fit Center  210 is at  -3.436666 -1.437461  0.367601
      ESP Fit Center  211 is at  -2.183716  1.386685 -0.067215
      ESP Fit Center  212 is at  -2.604005  1.360243 -0.067215
      ESP Fit Center  213 is at  -3.004514  1.230109 -0.067215
      ESP Fit Center  214 is at  -3.360077  1.004462 -0.067215
      ESP Fit Center  215 is at  -3.648353  0.697479 -0.067215
      ESP Fit Center  216 is at  -3.851229  0.328449 -0.067215
      ESP Fit Center  217 is at  -3.955957 -0.079440 -0.067215
      ESP Fit Center  218 is at  -3.955957 -0.500560 -0.067215
      ESP Fit Center  219 is at  -3.851229 -0.908449 -0.067215
      ESP Fit Center  220 is at  -3.648353 -1.277479 -0.067215
      ESP Fit Center  221 is at  -3.360077 -1.584462 -0.067215
      ESP Fit Center  222 is at  -2.289204  1.332755 -0.502031
      ESP Fit Center  223 is at  -2.709204  1.277461 -0.502031
      ESP Fit Center  224 is at  -3.100582  1.115347 -0.502031
      ESP Fit Center  225 is at  -3.436666  0.857461 -0.502031
      ESP Fit Center  226 is at  -3.694552  0.521378 -0.502031
      ESP Fit Center  227 is at  -3.856666  0.130000 -0.502031
      ESP Fit Center  228 is at  -3.911960 -0.290000 -0.502031
      ESP Fit Center  229 is at  -3.856666 -0.710000 -0.502031
      ESP Fit Center  230 is at  -3.694552 -1.101378 -0.502031
      ESP Fit Center  231 is at  -3.436666 -1.437461 -0.502031
      ESP Fit Center  232 is at  -2.612955  1.128445 -0.907215
      ESP Fit Center  233 is at  -3.016666  0.970000 -0.907215
      ESP Fit Center  234 is at  -3.355738  0.699599 -0.907215
      ESP Fit Center  235 is at  -3.600044  0.341267 -0.907215
      ESP Fit Center  236 is at  -3.727877 -0.073155 -0.907215
      ESP Fit Center  237 is at  -3.727877 -0.506845 -0.907215
      ESP Fit Center  238 is at  -3.600044 -0.921267 -0.907215
      ESP Fit Center  239 is at  -3.355738 -1.279599 -0.907215
      ESP Fit Center  240 is at  -3.016666 -1.550000 -0.907215
      ESP Fit Center  241 is at  -2.614299  0.852591 -1.255154
      ESP Fit Center  242 is at  -3.005098  0.657996 -1.255154
      ESP Fit Center  243 is at  -3.299211  0.335370 -1.255154
      ESP Fit Center  244 is at  -3.456917 -0.071717 -1.255154
      ESP Fit Center  245 is at  -3.456917 -0.508283 -1.255154
      ESP Fit Center  246 is at  -3.299211 -0.915369 -1.255154
      ESP Fit Center  247 is at  -3.005098 -1.237996 -1.255154
      ESP Fit Center  248 is at  -2.289204  0.550000 -1.522138
      ESP Fit Center  249 is at  -2.709204  0.437461 -1.522138
      ESP Fit Center  250 is at  -3.016666  0.130000 -1.522138
      ESP Fit Center  251 is at  -3.129204 -0.290000 -1.522138
      ESP Fit Center  252 is at  -3.016666 -0.710000 -1.522138
      ESP Fit Center  253 is at  -2.709204 -1.017461 -1.522138
      ESP Fit Center  254 is at  -2.506612  0.086562 -1.689970
      ESP Fit Center  255 is at  -2.724020 -0.290000 -1.689970
      ESP Fit Center  256 is at  -2.506612 -0.666562 -1.689970
      ESP Fit Center  257 is at  -2.289204 -0.290000 -1.747215
      ESP Fit Center  258 is at   0.000001  0.232450  2.005906
      ESP Fit Center  259 is at   2.089529  1.438839 -0.018656
      ESP Fit Center  260 is at  -2.089527  1.438839 -0.018656
      ESP Fit Center  261 is at   2.138886  1.427302 -0.444094
      ESP Fit Center  262 is at   1.906189  1.771589 -0.444094
      ESP Fit Center  263 is at  -1.768791  1.927700 -0.444094
      ESP Fit Center  264 is at  -2.029847  1.604388 -0.444094
      ESP Fit Center  265 is at   2.089529  1.438839 -0.869532
      ESP Fit Center  266 is at   1.848297  1.783354 -0.869532
      ESP Fit Center  267 is at   1.550906  2.080746 -0.869532
      ESP Fit Center  268 is at  -1.550903  2.080746 -0.869532
      ESP Fit Center  269 is at  -1.848295  1.783354 -0.869532
      ESP Fit Center  270 is at  -2.089527  1.438839 -0.869532
      ESP Fit Center  271 is at   2.146783  1.064117 -1.282044
      ESP Fit Center  272 is at   1.957411  1.444426 -1.282044
      ESP Fit Center  273 is at   1.701382  1.783463 -1.282044
      ESP Fit Center  274 is at   1.387415  2.069682 -1.282044
      ESP Fit Center  275 is at   1.026201  2.293337 -1.282044
      ESP Fit Center  276 is at   0.630041  2.446810 -1.282044
      ESP Fit Center  277 is at   0.212426  2.524876 -1.282044
      ESP Fit Center  278 is at  -0.212423  2.524876 -1.282044
      ESP Fit Center  279 is at  -0.630038  2.446810 -1.282044
      ESP Fit Center  280 is at  -1.026198  2.293337 -1.282044
      ESP Fit Center  281 is at  -1.387412  2.069682 -1.282044
      ESP Fit Center  282 is at  -1.701380  1.783463 -1.282044
      ESP Fit Center  283 is at  -1.957408  1.444426 -1.282044
      ESP Fit Center  284 is at  -2.146780  1.064117 -1.282044
      ESP Fit Center  285 is at   2.121764  0.232450 -1.669094
      ESP Fit Center  286 is at   2.080994  0.646385 -1.669094
      ESP Fit Center  287 is at   1.960254  1.044413 -1.669094
      ESP Fit Center  288 is at   1.764182  1.411238 -1.669094
      ESP Fit Center  289 is at   1.500314  1.732762 -1.669094
      ESP Fit Center  290 is at   1.178789  1.996630 -1.669094
      ESP Fit Center  291 is at   0.811965  2.192702 -1.669094
      ESP Fit Center  292 is at   0.413937  2.313443 -1.669094
      ESP Fit Center  293 is at   0.000001  2.354212 -1.669094
      ESP Fit Center  294 is at  -0.413934  2.313443 -1.669094
      ESP Fit Center  295 is at  -0.811962  2.192702 -1.669094
      ESP Fit Center  296 is at  -1.178787  1.996630 -1.669094
      ESP Fit Center  297 is at  -1.500311  1.732762 -1.669094
      ESP Fit Center  298 is at  -1.764180  1.411238 -1.669094
      ESP Fit Center  299 is at  -1.960251  1.044413 -1.669094
      ESP Fit Center  300 is at  -2.080992  0.646385 -1.669094
      ESP Fit Center  301 is at  -2.121761  0.232450 -1.669094
      ESP Fit Center  302 is at   0.000001 -1.889313 -1.669094
      ESP Fit Center  303 is at   1.876810  0.232450 -2.018924
      ESP Fit Center  304 is at   1.829755  0.650079 -2.018924
      ESP Fit Center  305 is at   1.690948  1.046766 -2.018924
      ESP Fit Center  306 is at   1.467350  1.402621 -2.018924
      ESP Fit Center  307 is at   1.170173  1.699798 -2.018924
      ESP Fit Center  308 is at   0.814318  1.923396 -2.018924
      ESP Fit Center  309 is at   0.417631  2.062203 -2.018924
      ESP Fit Center  310 is at   0.000001  2.109258 -2.018924
      ESP Fit Center  311 is at  -0.417628  2.062203 -2.018924
      ESP Fit Center  312 is at  -0.814316  1.923396 -2.018924
      ESP Fit Center  313 is at  -1.170170  1.699798 -2.018924
      ESP Fit Center  314 is at  -1.467347  1.402621 -2.018924
      ESP Fit Center  315 is at  -1.690945  1.046766 -2.018924
      ESP Fit Center  316 is at  -1.829752  0.650079 -2.018924
      ESP Fit Center  317 is at  -1.876808  0.232450 -2.018924
      ESP Fit Center  318 is at  -1.829752 -0.185180 -2.018924
      ESP Fit Center  319 is at  -1.690945 -0.581867 -2.018924
      ESP Fit Center  320 is at  -1.467347 -0.937722 -2.018924
      ESP Fit Center  321 is at  -1.170170 -1.234899 -2.018924
      ESP Fit Center  322 is at  -0.814316 -1.458497 -2.018924
      ESP Fit Center  323 is at  -0.417628 -1.597304 -2.018924
      ESP Fit Center  324 is at   0.000001 -1.644359 -2.018924
      ESP Fit Center  325 is at   0.417631 -1.597304 -2.018924
      ESP Fit Center  326 is at   0.814318 -1.458497 -2.018924
      ESP Fit Center  327 is at   1.170173 -1.234899 -2.018924
      ESP Fit Center  328 is at   1.467350 -0.937722 -2.018924
      ESP Fit Center  329 is at   1.690948 -0.581867 -2.018924
      ESP Fit Center  330 is at   1.829755 -0.185180 -2.018924
      ESP Fit Center  331 is at   1.574831  0.232450 -2.320903
      ESP Fit Center  332 is at   1.516432  0.657334 -2.320903
      ESP Fit Center  333 is at   1.345566  1.050706 -2.320903
      ESP Fit Center  334 is at   1.074906  1.383392 -2.320903
      ESP Fit Center  335 is at   0.724525  1.630718 -2.320903
      ESP Fit Center  336 is at   0.320410  1.774340 -2.320903
      ESP Fit Center  337 is at  -0.107469  1.803608 -2.320903
      ESP Fit Center  338 is at  -0.527377  1.716350 -2.320903
      ESP Fit Center  339 is at  -0.908172  1.519038 -2.320903
      ESP Fit Center  340 is at  -1.221612  1.226306 -2.320903
      ESP Fit Center  341 is at  -1.444450  0.859863 -2.320903
      ESP Fit Center  342 is at  -1.560160  0.446889 -2.320903
      ESP Fit Center  343 is at  -1.560160  0.018010 -2.320903
      ESP Fit Center  344 is at  -1.444450 -0.394964 -2.320903
      ESP Fit Center  345 is at  -1.221612 -0.761406 -2.320903
      ESP Fit Center  346 is at  -0.908172 -1.054139 -2.320903
      ESP Fit Center  347 is at  -0.527377 -1.251451 -2.320903
      ESP Fit Center  348 is at  -0.107469 -1.338709 -2.320903
      ESP Fit Center  349 is at   0.320410 -1.309441 -2.320903
      ESP Fit Center  350 is at   0.724525 -1.165818 -2.320903
      ESP Fit Center  351 is at   1.074906 -0.918493 -2.320903
      ESP Fit Center  352 is at   1.345566 -0.585807 -2.320903
      ESP Fit Center  353 is at   1.516432 -0.192434 -2.320903
      ESP Fit Center  354 is at   1.225001  0.232450 -2.565857
      ESP Fit Center  355 is at   1.151125  0.651424 -2.565857
      ESP Fit Center  356 is at   0.938406  1.019864 -2.565857
      ESP Fit Center  357 is at   0.612501  1.293331 -2.565857
      ESP Fit Center  358 is at   0.212720  1.438839 -2.565857
      ESP Fit Center  359 is at  -0.212718  1.438839 -2.565857
      ESP Fit Center  360 is at  -0.612499  1.293331 -2.565857
      ESP Fit Center  361 is at  -0.938403  1.019864 -2.565857
      ESP Fit Center  362 is at  -1.151122  0.651424 -2.565857
      ESP Fit Center  363 is at  -1.224999  0.232450 -2.565857
      ESP Fit Center  364 is at  -1.151122 -0.186525 -2.565857
      ESP Fit Center  365 is at  -0.938403 -0.554965 -2.565857
      ESP Fit Center  366 is at  -0.612499 -0.828432 -2.565857
      ESP Fit Center  367 is at  -0.212718 -0.973940 -2.565857
      ESP Fit Center  368 is at   0.212720 -0.973940 -2.565857
      ESP Fit Center  369 is at   0.612501 -0.828432 -2.565857
      ESP Fit Center  370 is at   0.938406 -0.554965 -2.565857
      ESP Fit Center  371 is at   1.151125 -0.186525 -2.565857
      ESP Fit Center  372 is at   0.837951  0.232450 -2.746341
      ESP Fit Center  373 is at   0.725687  0.651424 -2.746341
      ESP Fit Center  374 is at   0.418976  0.958135 -2.746341
      ESP Fit Center  375 is at   0.000001  1.070399 -2.746341
      ESP Fit Center  376 is at  -0.418973  0.958135 -2.746341
      ESP Fit Center  377 is at  -0.725684  0.651424 -2.746341
      ESP Fit Center  378 is at  -0.837948  0.232450 -2.746341
      ESP Fit Center  379 is at  -0.725684 -0.186525 -2.746341
      ESP Fit Center  380 is at  -0.418973 -0.493236 -2.746341
      ESP Fit Center  381 is at   0.000001 -0.605500 -2.746341
      ESP Fit Center  382 is at   0.418976 -0.493236 -2.746341
      ESP Fit Center  383 is at   0.725687 -0.186525 -2.746341
      ESP Fit Center  384 is at   0.425439  0.232450 -2.856873
      ESP Fit Center  385 is at   0.212720  0.600890 -2.856873
      ESP Fit Center  386 is at  -0.212718  0.600890 -2.856873
      ESP Fit Center  387 is at  -0.425437  0.232450 -2.856873
      ESP Fit Center  388 is at  -0.212718 -0.135991 -2.856873
      ESP Fit Center  389 is at   0.212720 -0.135991 -2.856873
      ESP Fit Center  390 is at   0.000001  0.232450 -2.894094
      ESP Fit Center  391 is at   3.112458 -0.806571  1.351384
      ESP Fit Center  392 is at   2.358262  0.630430  1.351384
      ESP Fit Center  393 is at   1.985543  0.826048  1.351384
      ESP Fit Center  394 is at   1.985543 -2.439190  1.351384
      ESP Fit Center  395 is at   2.358262 -2.243572  1.351384
      ESP Fit Center  396 is at   2.673336 -1.964440  1.351384
      ESP Fit Center  397 is at   2.912455 -1.618018  1.351384
      ESP Fit Center  398 is at   3.061720 -1.224437  1.351384
      ESP Fit Center  399 is at   1.885416  1.062858  0.988322
      ESP Fit Center  400 is at   0.277587 -2.412409  0.988322
      ESP Fit Center  401 is at   0.648250 -2.608922  0.988322
      ESP Fit Center  402 is at   2.275153 -2.520714  0.988322
      ESP Fit Center  403 is at   2.622397 -2.285277  0.988322
      ESP Fit Center  404 is at   2.910910 -1.980698  0.988322
      ESP Fit Center  405 is at   3.127202 -1.621217  0.988322
      ESP Fit Center  406 is at   3.261160 -1.223645  0.988322
      ESP Fit Center  407 is at   2.785402 -2.299390  0.594376
      ESP Fit Center  408 is at   3.056857 -1.983183  0.594376
      ESP Fit Center  409 is at   3.259103 -1.618806  0.594376
      ESP Fit Center  410 is at   3.112458 -1.973268  0.184686
      ESP Fit Center  411 is at   3.306519 -1.610206  0.184686
      ESP Fit Center  412 is at   3.056857 -1.983183 -0.225003
      ESP Fit Center  413 is at   2.912455 -1.618018 -0.982011
      ESP Fit Center  414 is at   2.454285 -1.228031 -1.561400
      ESP Fit Center  415 is at   2.170007 -0.806571 -1.755461
      ESP Fit Center  416 is at   2.062341 -0.404753 -1.755461
      ESP Fit Center  417 is at   2.062341 -1.208388 -1.755461
      ESP Fit Center  418 is at   1.776062 -0.806571 -1.874963
      ESP Fit Center  419 is at   1.571217 -1.161373 -1.874963
      ESP Fit Center  420 is at   0.623288 -2.729292  0.887545
      ESP Fit Center  421 is at   1.014086 -2.923886  0.887545
      ESP Fit Center  422 is at   1.448790 -2.964168  0.887545
      ESP Fit Center  423 is at   1.868691 -2.844695  0.887545
      ESP Fit Center  424 is at   0.028341 -2.412563  0.539606
      ESP Fit Center  425 is at   0.272647 -2.770894  0.539606
      ESP Fit Center  426 is at   0.611720 -3.041296  0.539606
      ESP Fit Center  427 is at   1.015431 -3.199740  0.539606
      ESP Fit Center  428 is at   1.447908 -3.232150  0.539606
      ESP Fit Center  429 is at   1.870724 -3.135645  0.539606
      ESP Fit Center  430 is at   2.246311 -2.918800  0.539606
      ESP Fit Center  431 is at   2.541295 -2.600883  0.539606
      ESP Fit Center  432 is at   0.191720 -2.928757  0.134422
      ESP Fit Center  433 is at   0.527804 -3.186643  0.134422
      ESP Fit Center  434 is at   0.919181 -3.348757  0.134422
      ESP Fit Center  435 is at   1.339181 -3.404051  0.134422
      ESP Fit Center  436 is at   1.759181 -3.348757  0.134422
      ESP Fit Center  437 is at   2.150559 -3.186643  0.134422
      ESP Fit Center  438 is at   2.486643 -2.928757  0.134422
      ESP Fit Center  439 is at   2.744529 -2.592673  0.134422
      ESP Fit Center  440 is at   0.268309 -3.075758 -0.300394
      ESP Fit Center  441 is at   0.623872 -3.301405 -0.300394
      ESP Fit Center  442 is at   1.024381 -3.431538 -0.300394
      ESP Fit Center  443 is at   1.444669 -3.457981 -0.300394
      ESP Fit Center  444 is at   1.858330 -3.379071 -0.300394
      ESP Fit Center  445 is at   2.239370 -3.199767 -0.300394
      ESP Fit Center  446 is at   2.563849 -2.931335 -0.300394
      ESP Fit Center  447 is at   2.811376 -2.590642 -0.300394
      ESP Fit Center  448 is at   2.966401 -2.199095 -0.300394
      ESP Fit Center  449 is at   0.191720 -2.928757 -0.735210
      ESP Fit Center  450 is at   0.527804 -3.186643 -0.735210
      ESP Fit Center  451 is at   0.919181 -3.348757 -0.735210
      ESP Fit Center  452 is at   1.339181 -3.404051 -0.735210
      ESP Fit Center  453 is at   1.759181 -3.348757 -0.735210
      ESP Fit Center  454 is at   2.150559 -3.186643 -0.735210
      ESP Fit Center  455 is at   2.486643 -2.928757 -0.735210
      ESP Fit Center  456 is at   2.744529 -2.592673 -0.735210
      ESP Fit Center  457 is at   2.906643 -2.201296 -0.735210
      ESP Fit Center  458 is at   2.794104 -1.781296 -1.140394
      ESP Fit Center  459 is at   0.028341 -2.412563 -1.140394
      ESP Fit Center  460 is at   0.272647 -2.770894 -1.140394
      ESP Fit Center  461 is at   0.611720 -3.041296 -1.140394
      ESP Fit Center  462 is at   1.015431 -3.199740 -1.140394
      ESP Fit Center  463 is at   1.447908 -3.232150 -1.140394
      ESP Fit Center  464 is at   1.870724 -3.135645 -1.140394
      ESP Fit Center  465 is at   2.246311 -2.918800 -1.140394
      ESP Fit Center  466 is at   2.541295 -2.600883 -1.140394
      ESP Fit Center  467 is at   2.729466 -2.210142 -1.140394
      ESP Fit Center  468 is at   2.527121 -1.781296 -1.488333
      ESP Fit Center  469 is at   0.171469 -1.999579 -1.488333
      ESP Fit Center  470 is at   0.329175 -2.406665 -1.488333
      ESP Fit Center  471 is at   0.623288 -2.729292 -1.488333
      ESP Fit Center  472 is at   1.014086 -2.923886 -1.488333
      ESP Fit Center  473 is at   1.448790 -2.964168 -1.488333
      ESP Fit Center  474 is at   1.868691 -2.844695 -1.488333
      ESP Fit Center  475 is at   2.217079 -2.581605 -1.488333
      ESP Fit Center  476 is at   2.446902 -2.210429 -1.488333
      ESP Fit Center  477 is at   2.179181 -1.781296 -1.755317
      ESP Fit Center  478 is at   2.066643 -1.361296 -1.755317
      ESP Fit Center  479 is at   0.499181 -1.781296 -1.755317
      ESP Fit Center  480 is at   0.611720 -2.201296 -1.755317
      ESP Fit Center  481 is at   0.919181 -2.508757 -1.755317
      ESP Fit Center  482 is at   1.339181 -2.621296 -1.755317
      ESP Fit Center  483 is at   1.759181 -2.508757 -1.755317
      ESP Fit Center  484 is at   2.066643 -2.201296 -1.755317
      ESP Fit Center  485 is at   1.773997 -1.781296 -1.923149
      ESP Fit Center  486 is at   1.556589 -1.404734 -1.923149
      ESP Fit Center  487 is at   1.121773 -1.404734 -1.923149
      ESP Fit Center  488 is at   0.904365 -1.781296 -1.923149
      ESP Fit Center  489 is at   1.121773 -2.157857 -1.923149
      ESP Fit Center  490 is at   1.556589 -2.157857 -1.923149
      ESP Fit Center  491 is at   1.339181 -1.781296 -1.980394
      ESP Fit Center  492 is at   3.129208 -0.289856  1.387789
      ESP Fit Center  493 is at   3.016669  0.130144  1.387789
      ESP Fit Center  494 is at   2.709208  0.437605  1.387789
      ESP Fit Center  495 is at   3.477147 -0.289856  1.120806
      ESP Fit Center  496 is at   3.396928  0.139277  1.120806
      ESP Fit Center  497 is at   3.167106  0.510453  1.120806
      ESP Fit Center  498 is at   2.818718  0.773543  1.120806
      ESP Fit Center  499 is at   2.398817  0.893015  1.120806
      ESP Fit Center  500 is at   3.396928 -0.718990  1.120806
      ESP Fit Center  501 is at   3.744131 -0.289856  0.772867
      ESP Fit Center  502 is at   3.679492  0.138990  0.772867
      ESP Fit Center  503 is at   3.491321  0.529731  0.772867
      ESP Fit Center  504 is at   3.196337  0.847648  0.772867
      ESP Fit Center  505 is at   2.820751  1.064493  0.772867
      ESP Fit Center  506 is at   2.397934  1.160998  0.772867
      ESP Fit Center  507 is at   1.965457  1.128588  0.772867
      ESP Fit Center  508 is at   3.491321 -1.109444  0.772867
      ESP Fit Center  509 is at   3.679492 -0.718702  0.772867
      ESP Fit Center  510 is at   3.911963 -0.289856  0.367683
      ESP Fit Center  511 is at   3.856669  0.130144  0.367683
      ESP Fit Center  512 is at   3.694555  0.521521  0.367683
      ESP Fit Center  513 is at   3.436669  0.857605  0.367683
      ESP Fit Center  514 is at   3.100586  1.115491  0.367683
      ESP Fit Center  515 is at   2.709208  1.277605  0.367683
      ESP Fit Center  516 is at   2.289208  1.332899  0.367683
      ESP Fit Center  517 is at   3.436669 -1.437318  0.367683
      ESP Fit Center  518 is at   3.694555 -1.101234  0.367683
      ESP Fit Center  519 is at   3.856669 -0.709856  0.367683
      ESP Fit Center  520 is at   3.969208 -0.289856 -0.067133
      ESP Fit Center  521 is at   3.916428  0.127943 -0.067133
      ESP Fit Center  522 is at   3.761403  0.519490 -0.067133
      ESP Fit Center  523 is at   3.513875  0.860183 -0.067133
      ESP Fit Center  524 is at   3.189397  1.128614 -0.067133
      ESP Fit Center  525 is at   2.808356  1.307918 -0.067133
      ESP Fit Center  526 is at   2.394696  1.386828 -0.067133
      ESP Fit Center  527 is at   3.513875 -1.439896 -0.067133
      ESP Fit Center  528 is at   3.761403 -1.099203 -0.067133
      ESP Fit Center  529 is at   3.916428 -0.707655 -0.067133
      ESP Fit Center  530 is at   3.911963 -0.289856 -0.501949
      ESP Fit Center  531 is at   3.856669  0.130144 -0.501949
      ESP Fit Center  532 is at   3.694555  0.521521 -0.501949
      ESP Fit Center  533 is at   3.436669  0.857605 -0.501949
      ESP Fit Center  534 is at   3.100586  1.115491 -0.501949
      ESP Fit Center  535 is at   2.709208  1.277605 -0.501949
      ESP Fit Center  536 is at   2.289208  1.332899 -0.501949
      ESP Fit Center  537 is at   3.436669 -1.437318 -0.501949
      ESP Fit Center  538 is at   3.694555 -1.101234 -0.501949
      ESP Fit Center  539 is at   3.856669 -0.709856 -0.501949
      ESP Fit Center  540 is at   3.744131 -0.289856 -0.907133
      ESP Fit Center  541 is at   3.679492  0.138990 -0.907133
      ESP Fit Center  542 is at   3.491321  0.529731 -0.907133
      ESP Fit Center  543 is at   3.196337  0.847648 -0.907133
      ESP Fit Center  544 is at   2.820751  1.064493 -0.907133
      ESP Fit Center  545 is at   2.397934  1.160998 -0.907133
      ESP Fit Center  546 is at   3.196337 -1.427361 -0.907133
      ESP Fit Center  547 is at   3.491321 -1.109444 -0.907133
      ESP Fit Center  548 is at   3.679492 -0.718702 -0.907133
      ESP Fit Center  549 is at   3.477147 -0.289856 -1.255073
      ESP Fit Center  550 is at   3.396928  0.139277 -1.255073
      ESP Fit Center  551 is at   3.167106  0.510453 -1.255073
      ESP Fit Center  552 is at   2.818718  0.773543 -1.255073
      ESP Fit Center  553 is at   2.398817  0.893015 -1.255073
      ESP Fit Center  554 is at   2.818718 -1.353256 -1.255073
      ESP Fit Center  555 is at   3.167106 -1.090166 -1.255073
      ESP Fit Center  556 is at   3.396928 -0.718990 -1.255073
      ESP Fit Center  557 is at   3.129208 -0.289856 -1.522056
      ESP Fit Center  558 is at   3.016669  0.130144 -1.522056
      ESP Fit Center  559 is at   2.709208  0.437605 -1.522056
      ESP Fit Center  560 is at   2.289208  0.550144 -1.522056
      ESP Fit Center  561 is at   2.709208 -1.017318 -1.522056
      ESP Fit Center  562 is at   3.016669 -0.709856 -1.522056
      ESP Fit Center  563 is at   2.724024 -0.289856 -1.689889
      ESP Fit Center  564 is at   2.506616  0.086705 -1.689889
      ESP Fit Center  565 is at   2.506616 -0.666418 -1.689889
      ESP Fit Center  566 is at   2.289208 -0.289856 -1.747133
      ESP Fit Center  567 is at   1.270259 -0.897478  2.945240
      ESP Fit Center  568 is at   1.705075 -0.897478  2.887995
      ESP Fit Center  569 is at   1.487667 -0.520917  2.887995
      ESP Fit Center  570 is at   1.052851 -0.520917  2.887995
      ESP Fit Center  571 is at   0.835443 -0.897478  2.887995
      ESP Fit Center  572 is at   1.052851 -1.274040  2.887995
      ESP Fit Center  573 is at   1.487667 -1.274040  2.887995
      ESP Fit Center  574 is at   2.110259 -0.897478  2.720162
      ESP Fit Center  575 is at   1.997721 -0.477478  2.720162
      ESP Fit Center  576 is at   1.690259 -0.170017  2.720162
      ESP Fit Center  577 is at   1.270259 -0.057478  2.720162
      ESP Fit Center  578 is at   0.850259 -0.170017  2.720162
      ESP Fit Center  579 is at   0.542798 -0.477478  2.720162
      ESP Fit Center  580 is at   0.430259 -0.897478  2.720162
      ESP Fit Center  581 is at   0.542798 -1.317478  2.720162
      ESP Fit Center  582 is at   0.850259 -1.624940  2.720162
      ESP Fit Center  583 is at   1.270259 -1.737478  2.720162
      ESP Fit Center  584 is at   1.690259 -1.624940  2.720162
      ESP Fit Center  585 is at   1.997721 -1.317478  2.720162
      ESP Fit Center  586 is at   2.458199 -0.897478  2.453179
      ESP Fit Center  587 is at   2.377980 -0.468345  2.453179
      ESP Fit Center  588 is at   2.148157 -0.097169  2.453179
      ESP Fit Center  589 is at   1.799769  0.165921  2.453179
      ESP Fit Center  590 is at   1.379868  0.285393  2.453179
      ESP Fit Center  591 is at   0.945164  0.245112  2.453179
      ESP Fit Center  592 is at   0.554366  0.050518  2.453179
      ESP Fit Center  593 is at   0.260253 -0.272109  2.453179
      ESP Fit Center  594 is at   0.102547 -0.679195  2.453179
      ESP Fit Center  595 is at   0.102547 -1.115762  2.453179
      ESP Fit Center  596 is at   0.260253 -1.522848  2.453179
      ESP Fit Center  597 is at   0.554366 -1.845474  2.453179
      ESP Fit Center  598 is at   0.945164 -2.040069  2.453179
      ESP Fit Center  599 is at   1.379868 -2.080350  2.453179
      ESP Fit Center  600 is at   1.799769 -1.960878  2.453179
      ESP Fit Center  601 is at   2.148157 -1.697788  2.453179
      ESP Fit Center  602 is at   2.377980 -1.326612  2.453179
      ESP Fit Center  603 is at   2.725182 -0.897478  2.105240
      ESP Fit Center  604 is at   2.660544 -0.468632  2.105240
      ESP Fit Center  605 is at   2.472373 -0.077891  2.105240
      ESP Fit Center  606 is at   2.177389  0.240026  2.105240
      ESP Fit Center  607 is at   1.801802  0.456871  2.105240
      ESP Fit Center  608 is at   1.378986  0.553376  2.105240
      ESP Fit Center  609 is at   0.946508  0.520966  2.105240
      ESP Fit Center  610 is at   0.542798  0.362522  2.105240
      ESP Fit Center  611 is at   0.203725  0.092120  2.105240
      ESP Fit Center  612 is at   0.203725 -1.887077  2.105240
      ESP Fit Center  613 is at   0.542798 -2.157478  2.105240
      ESP Fit Center  614 is at   0.946508 -2.315923  2.105240
      ESP Fit Center  615 is at   1.378986 -2.348333  2.105240
      ESP Fit Center  616 is at   1.801802 -2.251828  2.105240
      ESP Fit Center  617 is at   2.177389 -2.034983  2.105240
      ESP Fit Center  618 is at   2.472373 -1.717065  2.105240
      ESP Fit Center  619 is at   2.660544 -1.326324  2.105240
      ESP Fit Center  620 is at   2.893015 -0.897478  1.700056
      ESP Fit Center  621 is at   2.837721 -0.477478  1.700056
      ESP Fit Center  622 is at   2.675607 -0.086101  1.700056
      ESP Fit Center  623 is at   2.417721  0.249983  1.700056
      ESP Fit Center  624 is at   2.081637  0.507869  1.700056
      ESP Fit Center  625 is at   1.690259  0.669983  1.700056
      ESP Fit Center  626 is at   1.270259  0.725277  1.700056
      ESP Fit Center  627 is at   0.122798 -2.044940  1.700056
      ESP Fit Center  628 is at   0.458882 -2.302826  1.700056
      ESP Fit Center  629 is at   0.850259 -2.464940  1.700056
      ESP Fit Center  630 is at   1.270259 -2.520234  1.700056
      ESP Fit Center  631 is at   1.690259 -2.464940  1.700056
      ESP Fit Center  632 is at   2.081637 -2.302826  1.700056
      ESP Fit Center  633 is at   2.417721 -2.044940  1.700056
      ESP Fit Center  634 is at   2.675607 -1.708856  1.700056
      ESP Fit Center  635 is at   2.837721 -1.317478  1.700056
      ESP Fit Center  636 is at   0.199387 -2.191941  1.265240
      ESP Fit Center  637 is at   0.554950 -2.417588  1.265240
      ESP Fit Center  638 is at  -0.000043  1.487186  2.346741
      ESP Fit Center  639 is at   0.407464  1.487186  2.303910
      ESP Fit Center  640 is at   0.203711  1.840097  2.303910
      ESP Fit Center  641 is at  -0.203796  1.840097  2.303910
      ESP Fit Center  642 is at  -0.407549  1.487186  2.303910
      ESP Fit Center  643 is at  -0.203796  1.134275  2.303910
      ESP Fit Center  644 is at   0.203711  1.134275  2.303910
      ESP Fit Center  645 is at   0.797161  1.487186  2.177290
      ESP Fit Center  646 is at   0.690356  1.885788  2.177290
      ESP Fit Center  647 is at   0.398559  2.177585  2.177290
      ESP Fit Center  648 is at  -0.000043  2.284390  2.177290
      ESP Fit Center  649 is at  -0.398644  2.177585  2.177290
      ESP Fit Center  650 is at  -0.690441  1.885788  2.177290
      ESP Fit Center  651 is at  -0.797246  1.487186  2.177290
      ESP Fit Center  652 is at  -0.690441  1.088584  2.177290
      ESP Fit Center  653 is at  -0.398644  0.796787  2.177290
      ESP Fit Center  654 is at  -0.000043  0.689982  2.177290
      ESP Fit Center  655 is at   0.398559  0.796787  2.177290
      ESP Fit Center  656 is at   0.690356  1.088584  2.177290
      ESP Fit Center  657 is at   1.152017  1.487186  1.972414
      ESP Fit Center  658 is at   1.074221  1.903358  1.972414
      ESP Fit Center  659 is at   0.851339  2.263323  1.972414
      ESP Fit Center  660 is at   0.513474  2.518467  1.972414
      ESP Fit Center  661 is at   0.106256  2.634331  1.972414
      ESP Fit Center  662 is at  -0.315318  2.595266  1.972414
      ESP Fit Center  663 is at  -0.694313  2.406549  1.972414
      ESP Fit Center  664 is at  -0.979543  2.093667  1.972414
      ESP Fit Center  665 is at  -1.132486  1.698876  1.972414
      ESP Fit Center  666 is at  -1.132486  1.275496  1.972414
      ESP Fit Center  667 is at  -0.979543  0.880705  1.972414
      ESP Fit Center  668 is at  -0.694313  0.567823  1.972414
      ESP Fit Center  669 is at   0.513474  0.455905  1.972414
      ESP Fit Center  670 is at   0.851339  0.711049  1.972414
      ESP Fit Center  671 is at   1.074221  1.071014  1.972414
      ESP Fit Center  672 is at   1.456521  1.487186  1.698237
      ESP Fit Center  673 is at   1.397520  1.897548  1.698237
      ESP Fit Center  674 is at   1.225297  2.274664  1.698237
      ESP Fit Center  675 is at   0.953804  2.587984  1.698237
      ESP Fit Center  676 is at   0.605036  2.812123  1.698237
      ESP Fit Center  677 is at   0.207248  2.928924  1.698237
      ESP Fit Center  678 is at  -0.207333  2.928924  1.698237
      ESP Fit Center  679 is at  -0.605121  2.812123  1.698237
      ESP Fit Center  680 is at  -0.953889  2.587984  1.698237
      ESP Fit Center  681 is at  -1.225382  2.274664  1.698237
      ESP Fit Center  682 is at  -1.397605  1.897548  1.698237
      ESP Fit Center  683 is at  -1.456606  1.487186  1.698237
      ESP Fit Center  684 is at  -1.397605  1.076825  1.698237
      ESP Fit Center  685 is at   1.397520  1.076825  1.698237
      ESP Fit Center  686 is at   1.697367  1.487186  1.366741
      ESP Fit Center  687 is at   1.644040  1.909315  1.366741
      ESP Fit Center  688 is at   1.487409  2.304920  1.366741
      ESP Fit Center  689 is at   1.237316  2.649143  1.366741
      ESP Fit Center  690 is at   0.909475  2.920357  1.366741
      ESP Fit Center  691 is at   0.524486  3.101519  1.366741
      ESP Fit Center  692 is at   0.106539  3.181246  1.366741
      ESP Fit Center  693 is at  -0.318105  3.154530  1.366741
      ESP Fit Center  694 is at  -0.722764  3.023048  1.366741
      ESP Fit Center  695 is at  -1.082012  2.795063  1.366741
      ESP Fit Center  696 is at  -1.373276  2.484899  1.366741
      ESP Fit Center  697 is at  -1.578254  2.112044  1.366741
      ESP Fit Center  698 is at  -1.684068  1.699928  1.366741
      ESP Fit Center  699 is at  -1.684068  1.274444  1.366741
      ESP Fit Center  700 is at   1.644040  1.065057  1.366741
      ESP Fit Center  701 is at   1.864028  1.487186  0.992414
      ESP Fit Center  702 is at   1.817292  1.901981  0.992414
      ESP Fit Center  703 is at   1.679427  2.295976  0.992414
      ESP Fit Center  704 is at   1.457347  2.649415  0.992414
      ESP Fit Center  705 is at   1.162187  2.944575  0.992414
      ESP Fit Center  706 is at   0.808747  3.166656  0.992414
      ESP Fit Center  707 is at   0.414752  3.304521  0.992414
      ESP Fit Center  708 is at  -0.000043  3.351257  0.992414
      ESP Fit Center  709 is at  -0.414837  3.304521  0.992414
      ESP Fit Center  710 is at  -0.808833  3.166656  0.992414
      ESP Fit Center  711 is at  -1.162272  2.944575  0.992414
      ESP Fit Center  712 is at  -1.457432  2.649415  0.992414
      ESP Fit Center  713 is at  -1.679512  2.295976  0.992414
      ESP Fit Center  714 is at  -1.817377  1.901981  0.992414
      ESP Fit Center  715 is at  -1.864113  1.487186  0.992414
      ESP Fit Center  716 is at   1.949220  1.487186  0.591616
      ESP Fit Center  717 is at   1.903648  1.906220  0.591616
      ESP Fit Center  718 is at   1.769061  2.305660  0.591616
      ESP Fit Center  719 is at   1.551752  2.666830  0.591616
      ESP Fit Center  720 is at   1.261884  2.972840  0.591616
      ESP Fit Center  721 is at   0.913009  3.209383  0.591616
      ESP Fit Center  722 is at   0.521441  3.365398  0.591616
      ESP Fit Center  723 is at   0.105488  3.433590  0.591616
      ESP Fit Center  724 is at  -0.315398  3.410770  0.591616
      ESP Fit Center  725 is at  -0.721539  3.298006  0.591616
      ESP Fit Center  726 is at  -1.093944  3.100570  0.591616
      ESP Fit Center  727 is at  -1.415199  2.827693  0.591616
      ESP Fit Center  728 is at  -1.670282  2.492136  0.591616
      ESP Fit Center  729 is at  -1.847268  2.109589  0.591616
      ESP Fit Center  730 is at  -1.937879  1.697939  0.591616
      ESP Fit Center  731 is at   1.903648  1.906220  0.181865
      ESP Fit Center  732 is at   1.769061  2.305660  0.181865
      ESP Fit Center  733 is at   1.551752  2.666830  0.181865
      ESP Fit Center  734 is at   1.261884  2.972840  0.181865
      ESP Fit Center  735 is at   0.913009  3.209383  0.181865
      ESP Fit Center  736 is at   0.521441  3.365398  0.181865
      ESP Fit Center  737 is at   0.105488  3.433590  0.181865
      ESP Fit Center  738 is at  -0.315398  3.410770  0.181865
      ESP Fit Center  739 is at  -0.721539  3.298006  0.181865
      ESP Fit Center  740 is at  -1.093944  3.100570  0.181865
      ESP Fit Center  741 is at  -1.415199  2.827693  0.181865
      ESP Fit Center  742 is at  -1.670282  2.492136  0.181865
      ESP Fit Center  743 is at  -1.847268  2.109589  0.181865
      ESP Fit Center  744 is at  -1.937879  1.697939  0.181865
      ESP Fit Center  745 is at   1.817292  1.901981 -0.218933
      ESP Fit Center  746 is at   1.679427  2.295976 -0.218933
      ESP Fit Center  747 is at   1.457347  2.649415 -0.218933
      ESP Fit Center  748 is at   1.162187  2.944575 -0.218933
      ESP Fit Center  749 is at   0.808747  3.166656 -0.218933
      ESP Fit Center  750 is at   0.414752  3.304521 -0.218933
      ESP Fit Center  751 is at  -0.000043  3.351257 -0.218933
      ESP Fit Center  752 is at  -0.414837  3.304521 -0.218933
      ESP Fit Center  753 is at  -0.808833  3.166656 -0.218933
      ESP Fit Center  754 is at  -1.162272  2.944575 -0.218933
      ESP Fit Center  755 is at  -1.457432  2.649415 -0.218933
      ESP Fit Center  756 is at  -1.679512  2.295976 -0.218933
      ESP Fit Center  757 is at  -1.817377  1.901981 -0.218933
      ESP Fit Center  758 is at   1.487409  2.304920 -0.593259
      ESP Fit Center  759 is at   1.237316  2.649143 -0.593259
      ESP Fit Center  760 is at   0.909475  2.920357 -0.593259
      ESP Fit Center  761 is at   0.524486  3.101519 -0.593259
      ESP Fit Center  762 is at   0.106539  3.181246 -0.593259
      ESP Fit Center  763 is at  -0.318105  3.154530 -0.593259
      ESP Fit Center  764 is at  -0.722764  3.023048 -0.593259
      ESP Fit Center  765 is at  -1.082012  2.795063 -0.593259
      ESP Fit Center  766 is at  -1.373276  2.484899 -0.593259
[...]
 3209 Fit       0.001825
 3210 Fit      -0.001266
 3211 Fit      -0.004484
 3212 Fit      -0.007692
 3213 Fit      -0.010748
 3214 Fit      -0.013504
 3215 Fit      -0.015808
 3216 Fit      -0.017514
 3217 Fit      -0.018505
 3218 Fit      -0.018707
 3219 Fit      -0.018105
 3220 Fit      -0.016745
 3221 Fit      -0.014723
 3222 Fit      -0.012174
 3223 Fit      -0.009249
 3224 Fit      -0.006099
 3225 Fit      -0.002869
 3226 Fit       0.000304
 3227 Fit       0.003275
 3228 Fit       0.005896
 3229 Fit       0.008046
 3230 Fit       0.009712
 3231 Fit       0.018923
 3232 Fit       0.018961
 3233 Fit       0.018952
 3234 Fit       0.008934
 3235 Fit       0.005006
 3236 Fit       0.002798
 3237 Fit       0.000273
 3238 Fit      -0.002458
 3239 Fit      -0.005259
 3240 Fit      -0.007983
 3241 Fit      -0.010477
 3242 Fit      -0.012584
 3243 Fit      -0.014156
 3244 Fit      -0.015073
 3245 Fit      -0.015260
 3246 Fit      -0.014702
 3247 Fit      -0.013445
 3248 Fit      -0.011589
 3249 Fit      -0.009270
 3250 Fit      -0.006641
 3251 Fit      -0.003860
 3252 Fit      -0.001075
 3253 Fit       0.001568
 3254 Fit       0.003945
 3255 Fit       0.005975
 3256 Fit       0.007663
 3257 Fit       0.009120
 3258 Fit       0.010498
 3259 Fit       0.011880
 3260 Fit       0.013208
 3261 Fit       0.014317
 3262 Fit       0.015079
 3263 Fit       0.015493
 3264 Fit       0.015644
 3265 Fit       0.015596
 3266 Fit       0.015325
 3267 Fit       0.014745
 3268 Fit       0.013801
 3269 Fit       0.012561
 3270 Fit       0.011189
 3271 Fit       0.009812
 3272 Fit       0.008412
 3273 Fit       0.006858
 3274 Fit       0.003213
 3275 Fit       0.001163
 3276 Fit      -0.001112
 3277 Fit      -0.003515
 3278 Fit      -0.005910
 3279 Fit      -0.008143
 3280 Fit      -0.010056
 3281 Fit      -0.011497
 3282 Fit      -0.012342
 3283 Fit      -0.012515
 3284 Fit      -0.012000
 3285 Fit      -0.010844
 3286 Fit      -0.009150
 3287 Fit      -0.007058
 3288 Fit      -0.004724
 3289 Fit      -0.002306
 3290 Fit       0.000048
 3291 Fit       0.002220
 3292 Fit       0.004138
 3293 Fit       0.005800
 3294 Fit       0.007268
 3295 Fit       0.008614
 3296 Fit       0.009853
 3297 Fit       0.010920
 3298 Fit       0.011726
 3299 Fit       0.012226
 3300 Fit       0.012432
 3301 Fit       0.012364
 3302 Fit       0.012015
 3303 Fit       0.011360
 3304 Fit       0.010414
 3305 Fit       0.009250
 3306 Fit       0.007954
 3307 Fit       0.006554
 3308 Fit       0.004999
 3309 Fit       0.001613
 3310 Fit      -0.000340
 3311 Fit      -0.002447
 3312 Fit      -0.004589
 3313 Fit      -0.006612
 3314 Fit      -0.008338
 3315 Fit      -0.009603
 3316 Fit      -0.010273
 3317 Fit      -0.010273
 3318 Fit      -0.009604
 3319 Fit      -0.008339
 3320 Fit      -0.006612
 3321 Fit      -0.004590
 3322 Fit      -0.002447
 3323 Fit      -0.000341
 3324 Fit       0.001612
 3325 Fit       0.003354
 3326 Fit       0.004889
 3327 Fit       0.006242
 3328 Fit       0.007413
 3329 Fit       0.008355
 3330 Fit       0.009008
 3331 Fit       0.009337
 3332 Fit       0.009337
 3333 Fit       0.009008
 3334 Fit       0.008356
 3335 Fit       0.007414
 3336 Fit       0.006242
 3337 Fit       0.004889
 3338 Fit       0.003355
 3339 Fit       0.000218
 3340 Fit      -0.001702
 3341 Fit      -0.003698
 3342 Fit      -0.005593
 3343 Fit      -0.007170
 3344 Fit      -0.008220
 3345 Fit      -0.008588
 3346 Fit      -0.008220
 3347 Fit      -0.007170
 3348 Fit      -0.005594
 3349 Fit      -0.003699
 3350 Fit      -0.001703
 3351 Fit       0.000218
 3352 Fit       0.001955
 3353 Fit       0.003465
 3354 Fit       0.004725
 3355 Fit       0.005689
 3356 Fit       0.006296
 3357 Fit       0.006503
 3358 Fit       0.006296
 3359 Fit       0.005689
 3360 Fit       0.004725
 3361 Fit       0.003465
 3362 Fit       0.001955
 3363 Fit      -0.000932
 3364 Fit      -0.002816
 3365 Fit      -0.004645
 3366 Fit      -0.006122
 3367 Fit      -0.006953
 3368 Fit      -0.006953
 3369 Fit      -0.006122
 3370 Fit      -0.004645
 3371 Fit      -0.002817
 3372 Fit      -0.000932
 3373 Fit       0.000788
 3374 Fit       0.002212
 3375 Fit       0.003242
 3376 Fit       0.003785
 3377 Fit       0.003785
 3378 Fit       0.003242
 3379 Fit       0.002213
 3380 Fit       0.000788
 3381 Fit      -0.001794
 3382 Fit      -0.003615
 3383 Fit      -0.005065
 3384 Fit      -0.005624
 3385 Fit      -0.005065
 3386 Fit      -0.003615
 3387 Fit      -0.001794
 3388 Fit      -0.000118
 3389 Fit       0.001046
 3390 Fit       0.001464
 3391 Fit       0.001046
 3392 Fit      -0.000118
 3393 Fit      -0.002328
 3394 Fit      -0.003889
 3395 Fit      -0.003889
 3396 Fit      -0.002328
 3397 Fit      -0.000872
 3398 Fit      -0.000872
 3399 Fit      -0.002509
 3400 Fit       0.007468
 3401 Fit       0.005885
 3402 Fit       0.003796
 3403 Fit       0.000987
 3404 Fit      -0.002776
 3405 Fit      -0.007736
 3406 Fit      -0.014135
 3407 Fit       0.011664
 3408 Fit       0.010752
 3409 Fit       0.009791
 3410 Fit       0.008725
 3411 Fit       0.007801
 3412 Fit       0.006519
 3413 Fit       0.004772
 3414 Fit       0.002340
 3415 Fit      -0.001016
 3416 Fit      -0.005559
 3417 Fit      -0.011604
 3418 Fit       0.018569
 3419 Fit       0.017485
 3420 Fit       0.016486
 3421 Fit       0.015533
 3422 Fit       0.014613
 3423 Fit       0.013722
 3424 Fit       0.012864
 3425 Fit       0.012040
 3426 Fit       0.011243
 3427 Fit       0.010459
 3428 Fit       0.009663
 3429 Fit       0.008805
 3430 Fit       0.008460
 3431 Fit      -0.009031
 3432 Fit      -0.016718
 3433 Fit       0.019362
 3434 Fit       0.018302
 3435 Fit       0.017303
 3436 Fit       0.016338
 3437 Fit       0.015388
 3438 Fit       0.014455
 3439 Fit       0.013552
 3440 Fit       0.012699
 3441 Fit       0.011905
 3442 Fit       0.011174
 3443 Fit       0.010497
 3444 Fit       0.009855
 3445 Fit       0.009204
 3446 Fit       0.020620
 3447 Fit       0.019540
 3448 Fit       0.015557
 3449 Fit       0.014560
 3450 Fit       0.013609
 3451 Fit       0.012736
 3452 Fit       0.011961
 3453 Fit       0.011291
 3454 Fit       0.010725
 3455 Fit       0.010249
 3456 Fit       0.009823
 3457 Fit       0.013955
 3458 Fit       0.013013
 3459 Fit       0.012217
 3460 Fit       0.011580
 3461 Fit       0.011106
 3462 Fit       0.010785
 3463 Fit       0.013600
 3464 Fit       0.012694
 3465 Fit       0.012018
 3466 Fit       0.011579
 3467 Fit       0.011372
 3468 Fit       0.014231
 3469 Fit       0.013196
 3470 Fit       0.012461
 3471 Fit       0.012032
 3472 Fit       0.013685
 3473 Fit       0.012878
 3474 Fit       0.012431
 3475 Fit       0.013373
 3476 Fit       0.012794
 3477 Fit       0.013926
 3478 Fit       0.013126
 3479 Fit       0.013415
 3480 Fit       0.012849
 3481 Fit       0.013731
 3482 Fit       0.012885
 3483 Fit       0.013980
 3484 Fit       0.012884
 3485 Fit       0.012149
 3486 Fit       0.010997
 3487 Fit       0.012994
 3488 Fit       0.011897
 3489 Fit       0.012905
 3490 Fit       0.011569
 3491 Fit       0.017438
 3492 Fit       0.021674
 3493 Fit       0.020109
 3494 Fit       0.018834
 3495 Fit       0.017766
 3496 Fit       0.016838
 3497 Fit       0.016009
 3498 Fit       0.015266
 3499 Fit       0.021474
 3500 Fit       0.019945
 3501 Fit       0.018736
 3502 Fit       0.017721
 3503 Fit       0.016826
 3504 Fit       0.016010
 3505 Fit       0.015265
 3506 Fit       0.014608
 3507 Fit       0.023033
 3508 Fit       0.021145
 3509 Fit       0.019756
 3510 Fit       0.018648
 3511 Fit       0.017699
 3512 Fit       0.016845
 3513 Fit       0.016053
 3514 Fit       0.015320
 3515 Fit       0.014667
 3516 Fit       0.022960
 3517 Fit       0.021160
 3518 Fit       0.019834
 3519 Fit       0.018766
 3520 Fit       0.017844
 3521 Fit       0.017003
 3522 Fit       0.016217
 3523 Fit       0.015482
 3524 Fit       0.014820
 3525 Fit       0.014280
 3526 Fit       0.024023
 3527 Fit       0.021916
 3528 Fit       0.020430
 3529 Fit       0.019273
 3530 Fit       0.018295
 3531 Fit       0.017414
 3532 Fit       0.016592
 3533 Fit       0.015818
 3534 Fit       0.015108
 3535 Fit       0.014509
 3536 Fit       0.023055
 3537 Fit       0.021264
 3538 Fit       0.019936
 3539 Fit       0.018858
 3540 Fit       0.017913
 3541 Fit       0.017041
 3542 Fit       0.016219
 3543 Fit       0.015454
 3544 Fit       0.014783
 3545 Fit       0.014282
 3546 Fit       0.023851
 3547 Fit       0.021890
 3548 Fit       0.020441
 3549 Fit       0.019289
 3550 Fit       0.018301
 3551 Fit       0.017401
 3552 Fit       0.016554
 3553 Fit       0.015757
 3554 Fit       0.015039
 3555 Fit       0.014460
 3556 Fit       0.023298
 3557 Fit       0.021545
 3558 Fit       0.020159
 3559 Fit       0.019017
 3560 Fit       0.018016
 3561 Fit       0.017091
 3562 Fit       0.016217
 3563 Fit       0.015404
 3564 Fit       0.014702
 3565 Fit       0.014194
 3566 Fit       0.020747
 3567 Fit       0.019582
 3568 Fit       0.018528
 3569 Fit       0.017555
 3570 Fit       0.016631
 3571 Fit       0.015751
 3572 Fit       0.014949
 3573 Fit       0.014292
 3574 Fit       0.018938
 3575 Fit       0.018054
 3576 Fit       0.017119
 3577 Fit       0.016178
 3578 Fit       0.015266
 3579 Fit       0.014445
 3580 Fit       0.013770
 3581 Fit       0.017373
 3582 Fit       0.016676
 3583 Fit       0.015718
 3584 Fit       0.014705
 3585 Fit       0.015057
 3586 Fit       0.004637
 3587 Fit       0.002106
 3588 Fit      -0.001242
 3589 Fit       0.007118
 3590 Fit       0.005467
 3591 Fit       0.003330
 3592 Fit       0.000490
 3593 Fit      -0.003329
 3594 Fit      -0.008520
 3595 Fit       0.008465
 3596 Fit       0.007714
 3597 Fit       0.006337
 3598 Fit       0.004562
 3599 Fit       0.002229
 3600 Fit      -0.000872
 3601 Fit      -0.005045
 3602 Fit      -0.010756
 3603 Fit       0.009811
 3604 Fit       0.008829
 3605 Fit       0.008305
 3606 Fit       0.007077
 3607 Fit       0.005485
 3608 Fit       0.003391
 3609 Fit       0.000613
 3610 Fit      -0.003111
 3611 Fit      -0.008193
 3612 Fit       0.010143
 3613 Fit       0.009289
 3614 Fit       0.008840
 3615 Fit       0.007750
 3616 Fit       0.006343
 3617 Fit       0.004506
 3618 Fit       0.002094
 3619 Fit      -0.001094
 3620 Fit      -0.005365
 3621 Fit      -0.011224
 3622 Fit       0.011199
 3623 Fit       0.010462
 3624 Fit       0.009711
 3625 Fit       0.009286
 3626 Fit       0.008292
 3627 Fit       0.007013
 3628 Fit       0.005353
 3629 Fit       0.003196
 3630 Fit       0.000382
 3631 Fit      -0.003321
 3632 Fit      -0.008279
 3633 Fit       0.011447
 3634 Fit       0.010770
 3635 Fit       0.010083
 3636 Fit       0.009629
 3637 Fit       0.008665
 3638 Fit       0.007423
 3639 Fit       0.005812
 3640 Fit       0.003725
 3641 Fit       0.001021
 3642 Fit      -0.002495
 3643 Fit       0.011751
 3644 Fit       0.011073
 3645 Fit       0.010401
 3646 Fit       0.009861
 3647 Fit       0.008898
 3648 Fit       0.007658
 3649 Fit       0.006054
 3650 Fit       0.003988
 3651 Fit       0.001346
 3652 Fit      -0.002009
 3653 Fit       0.012049
 3654 Fit       0.011326
 3655 Fit       0.010638
 3656 Fit       0.009988
 3657 Fit       0.009028
 3658 Fit       0.007808
 3659 Fit       0.006251
 3660 Fit       0.004286
 3661 Fit       0.001853
 3662 Fit       0.012276
 3663 Fit       0.011494
 3664 Fit       0.010775
 3665 Fit       0.010019
 3666 Fit       0.008992
 3667 Fit       0.007699
 3668 Fit       0.006072
 3669 Fit       0.004081
 3670 Fit       0.012632
 3671 Fit       0.011688
 3672 Fit       0.010875
 3673 Fit       0.009969
 3674 Fit       0.008875
 3675 Fit       0.007529
 3676 Fit       0.005900
 3677 Fit       0.011838
 3678 Fit       0.010907
 3679 Fit       0.009854
 3680 Fit       0.008639
 3681 Fit       0.007201
 3682 Fit       0.010927
 3683 Fit       0.009685
 3684 Fit       0.008248
 3685 Fit       0.007221
 3686 Fit       0.007055
 3687 Fit       0.004894
 3688 Fit       0.004885
 3689 Fit       0.007570
 3690 Fit       0.009335
 3691 Fit       0.008917
 3692 Fit       0.006988
 3693 Fit       0.004713
 3694 Fit       0.002352
 3695 Fit       0.000902
 3696 Fit       0.001652
 3697 Fit       0.004708
 3698 Fit       0.008268
 3699 Fit       0.010517
 3700 Fit       0.011246
 3701 Fit       0.011000
 3702 Fit       0.010148
 3703 Fit       0.008811
 3704 Fit       0.006990
 3705 Fit       0.004908
 3706 Fit       0.002388
 3707 Fit      -0.000386
 3708 Fit      -0.002852
 3709 Fit      -0.004019
 3710 Fit      -0.002878
 3711 Fit       0.000698
 3712 Fit       0.005486
 3713 Fit       0.009642
 3714 Fit       0.012062
 3715 Fit       0.012945
 3716 Fit       0.012969
 3717 Fit       0.012564
 3718 Fit       0.011905
 3719 Fit       0.011044
 3720 Fit       0.009976
 3721 Fit       0.008651
 3722 Fit       0.007070
 3723 Fit       0.005118
 3724 Fit       0.002653
 3725 Fit      -0.000380
 3726 Fit      -0.003874
 3727 Fit      -0.007405
 3728 Fit      -0.010083
 3729 Fit      -0.010660
 3730 Fit      -0.008160
 3731 Fit      -0.002764
 3732 Fit       0.015180
 3733 Fit       0.014711
 3734 Fit       0.014107
 3735 Fit       0.013428
 3736 Fit       0.012682
 3737 Fit       0.011859
 3738 Fit       0.010939
 3739 Fit       0.009880
 3740 Fit       0.008621
 3741 Fit       0.007274
 3742 Fit       0.005430
 3743 Fit       0.003041
 3744 Fit      -0.000051
 3745 Fit      -0.003952
 3746 Fit      -0.008619
 3747 Fit      -0.013676
 3748 Fit       0.016927
 3749 Fit       0.015920
 3750 Fit       0.015067
 3751 Fit       0.014267
 3752 Fit       0.013474
 3753 Fit       0.012668
 3754 Fit       0.011827
 3755 Fit       0.010922
 3756 Fit       0.009910
 3757 Fit       0.008725
 3758 Fit       0.007682
 3759 Fit       0.006022
 3760 Fit       0.003827
 3761 Fit      -0.008029
 3762 Fit      -0.014276
 3763 Fit       0.016864
 3764 Fit       0.015913
 3765 Fit       0.015052
 3766 Fit       0.014232
 3767 Fit       0.013430
 3768 Fit       0.012634
 3769 Fit       0.011825
 3770 Fit       0.010977
 3771 Fit       0.010049
 3772 Fit       0.008980
 3773 Fit       0.018527
 3774 Fit       0.017402
 3775 Fit       0.016417
 3776 Fit       0.015500
 3777 Fit       0.014626
 3778 Fit      -0.025325
 3779 Fit      -0.025163
 3780 Fit      -0.028183
 3781 Fit      -0.028183
 3782 Fit      -0.025163
 3783 Fit      -0.021558
 3784 Fit      -0.021558
 3785 Fit      -0.024684
 3786 Fit      -0.028190
 3787 Fit      -0.030322
 3788 Fit      -0.031021
 3789 Fit      -0.030322
 3790 Fit      -0.028190
 3791 Fit      -0.024685
 3792 Fit      -0.020358
 3793 Fit      -0.016627
 3794 Fit      -0.015173
 3795 Fit      -0.016627
 3796 Fit      -0.020358
 3797 Fit      -0.023910
 3798 Fit      -0.027592
 3799 Fit      -0.030237
 3800 Fit      -0.031899
 3801 Fit      -0.032689
 3802 Fit      -0.032689
 3803 Fit      -0.031899
 3804 Fit      -0.030237
 3805 Fit      -0.027592
 3806 Fit      -0.023910
 3807 Fit      -0.019314
 3808 Fit      -0.019314
 3809 Fit      -0.022860
 3810 Fit      -0.026675
 3811 Fit      -0.029586
 3812 Fit      -0.031674
 3813 Fit      -0.033048
 3814 Fit      -0.033818
 3815 Fit      -0.034065
 3816 Fit      -0.033818
 3817 Fit      -0.033048
 3818 Fit      -0.031674
 3819 Fit      -0.029586
 3820 Fit      -0.026675
 3821 Fit      -0.022861
 3822 Fit      -0.018098
 3823 Fit      -0.018097
 3824 Fit      -0.021534
 3825 Fit      -0.025584
 3826 Fit      -0.028766
 3827 Fit      -0.031164
 3828 Fit      -0.032882
 3829 Fit      -0.034030
 3830 Fit      -0.034707
 3831 Fit      -0.034984
 3832 Fit      -0.034892
 3833 Fit      -0.034422
 3834 Fit      -0.033521
 3835 Fit      -0.032102
 3836 Fit      -0.030058
 3837 Fit      -0.027280
 3838 Fit      -0.023674
 3839 Fit      -0.019156
 3840 Fit      -0.019888
 3841 Fit      -0.024266
 3842 Fit      -0.027773
 3843 Fit      -0.030485
 3844 Fit      -0.032499
 3845 Fit      -0.033929
 3846 Fit      -0.034879
 3847 Fit      -0.035439
 3848 Fit      -0.035667
 3849 Fit      -0.035592
 3850 Fit      -0.035203
 3851 Fit      -0.034458
 3852 Fit      -0.033281
 3853 Fit      -0.031573
 3854 Fit      -0.029224
 3855 Fit      -0.026125
 3856 Fit      -0.022191
 3857 Fit      -0.022550
 3858 Fit      -0.026407
 3859 Fit      -0.029447
 3860 Fit      -0.031767
 3861 Fit      -0.033479
 3862 Fit      -0.034690
 3863 Fit      -0.035498
 3864 Fit      -0.035974
 3865 Fit      -0.036170
 3866 Fit      -0.036105
 3867 Fit      -0.035774
 3868 Fit      -0.035140
 3869 Fit      -0.034141
 3870 Fit      -0.032692
 3871 Fit      -0.030691
 3872 Fit      -0.028025
 3873 Fit      -0.024587
 3874 Fit      -0.020297
 3875 Fit      -0.020511
 3876 Fit      -0.024842
 3877 Fit      -0.028269
 3878 Fit      -0.030915
 3879 Fit      -0.032905
 3880 Fit      -0.034356
 3881 Fit      -0.035373
 3882 Fit      -0.036038
 3883 Fit      -0.036412
 3884 Fit      -0.036532
 3885 Fit      -0.036412
 3886 Fit      -0.036038
 3887 Fit      -0.035373
 3888 Fit      -0.034357
 3889 Fit      -0.032905
 3890 Fit      -0.030916
 3891 Fit      -0.028271
 3892 Fit      -0.024843
 3893 Fit      -0.020513
 3894 Fit      -0.023314
 3895 Fit      -0.027225
 3896 Fit      -0.030223
 3897 Fit      -0.032476
 3898 Fit      -0.034128
 3899 Fit      -0.035297
 3900 Fit      -0.036079
 3901 Fit      -0.036542
 3902 Fit      -0.036733
 3903 Fit      -0.036670
 3904 Fit      -0.036347
 3905 Fit      -0.035732
 3906 Fit      -0.034767
 3907 Fit      -0.033370
 3908 Fit      -0.031434
 3909 Fit      -0.028828
 3910 Fit      -0.025397
 3911 Fit      -0.020958
 3912 Fit      -0.021514
 3913 Fit      -0.025904
 3914 Fit      -0.029254
 3915 Fit      -0.031780
 3916 Fit      -0.033646
 3917 Fit      -0.034985
 3918 Fit      -0.035900
 3919 Fit      -0.036468
 3920 Fit      -0.036739
 3921 Fit      -0.036739
 3922 Fit      -0.036468
 3923 Fit      -0.035900
 3924 Fit      -0.034985
 3925 Fit      -0.033647
 3926 Fit      -0.031781
 3927 Fit      -0.029256
 3928 Fit      -0.025906
 3929 Fit      -0.021516
 3930 Fit      -0.024626
 3931 Fit      -0.028296
 3932 Fit      -0.031062
 3933 Fit      -0.033110
 3934 Fit      -0.034586
 3935 Fit      -0.035599
 3936 Fit      -0.036230
 3937 Fit      -0.036532
 3938 Fit      -0.036532
 3939 Fit      -0.036230
 3940 Fit      -0.035599
 3941 Fit      -0.034586
 3942 Fit      -0.033111
 3943 Fit      -0.031063
 3944 Fit      -0.028297
 3945 Fit      -0.024628
 3946 Fit      -0.027409
 3947 Fit      -0.030355
 3948 Fit      -0.032532
 3949 Fit      -0.034092
 3950 Fit      -0.035147
 3951 Fit      -0.035781
 3952 Fit      -0.036043
 3953 Fit      -0.035956
 3954 Fit      -0.035513
 3955 Fit      -0.034677
 3956 Fit      -0.033382
 3957 Fit      -0.031530
 3958 Fit      -0.028990
 3959 Fit      -0.025588
 3960 Fit      -0.029353
 3961 Fit      -0.031621
 3962 Fit      -0.033239
 3963 Fit      -0.034318
 3964 Fit      -0.034935
 3965 Fit      -0.035135
 3966 Fit      -0.034935
 3967 Fit      -0.034318
 3968 Fit      -0.033239
 3969 Fit      -0.031621
 3970 Fit      -0.029354
 3971 Fit      -0.028707
 3972 Fit      -0.030912
 3973 Fit      -0.032419
 3974 Fit      -0.033330
 3975 Fit      -0.033708
 3976 Fit      -0.033583
 3977 Fit      -0.032944
 3978 Fit      -0.031746
 3979 Fit      -0.029905
 3980 Fit      -0.031231
 3981 Fit      -0.031726
 3982 Fit      -0.031562
 3983 Fit      -0.030728
 -----------------------------------------------------------------
 Leave Link  602 at Fri Oct 29 22:58:10 2010, MaxMem=  939524096 cpu:       5.9
 (Enter /pdc/vol/gaussian/G03RevD.01/g03/l9999.exe)

 This type of calculation cannot be archived.


 The mind is not a vessel to be filled but a fire to be kindled.
                                  -- Plutarch
 Job cpu time:  0 days  0 hours  1 minutes 35.2 seconds.
 File lengths (MBytes):  RWF=     22 Int=      0 D2E=      0 Chk=     16 Scr=      1
 Normal termination of Gaussian 03 at Fri Oct 29 22:58:15 2010.

real	0m52.326s
user	0m56.157s
sys	0m39.402s
