 Entering Gaussian System, Link 0=g03
 Initial command:
 /pdc/vol/gaussian/G03RevD.01/g03/l1.exe /scratch/Gau-7158.inp -scrdir=/scratch/
 Default is to use a total of   8 processors:
                                8 via shared-memory
                                1 via Linda
 Entering Link 1 = /pdc/vol/gaussian/G03RevD.01/g03/l1.exe PID=      7159.
  
 Copyright (c) 1988,1990,1992,1993,1995,1998,2003,2004, Gaussian, Inc.
                  All Rights Reserved.
  
 This is the Gaussian(R) 03 program.  It is based on the
 the Gaussian(R) 98 system (copyright 1998, Gaussian, Inc.),
 the Gaussian(R) 94 system (copyright 1995, Gaussian, Inc.),
 the Gaussian 92(TM) system (copyright 1992, Gaussian, Inc.),
 the Gaussian 90(TM) system (copyright 1990, Gaussian, Inc.),
 the Gaussian 88(TM) system (copyright 1988, Gaussian, Inc.),
 the Gaussian 86(TM) system (copyright 1986, Carnegie Mellon
 University), and the Gaussian 82(TM) system (copyright 1983,
 Carnegie Mellon University). Gaussian is a federally registered
 trademark of Gaussian, Inc.
  
 This software contains proprietary and confidential information,
 including trade secrets, belonging to Gaussian, Inc.
  
 This software is provided under written license and may be
 used, copied, transmitted, or stored only in accord with that
 written license.
  
 The following legend is applicable only to US Government
 contracts under FAR:
  
                    RESTRICTED RIGHTS LEGEND
  
 Use, reproduction and disclosure by the US Government is
 subject to restrictions as set forth in subparagraphs (a)
 and (c) of the Commercial Computer Software - Restricted
 Rights clause in FAR 52.227-19.
  
 Gaussian, Inc.
 340 Quinnipiac St., Bldg. 40, Wallingford CT 06492
  
  
 ---------------------------------------------------------------
 Warning -- This program may not be used in any manner that
 competes with the business of Gaussian, Inc. or will provide
 assistance to any competitor of Gaussian, Inc.  The licensee
 of this program is prohibited from giving any competitor of
 Gaussian, Inc. access to this program.  By using this program,
 the user acknowledges that Gaussian, Inc. is engaged in the
 business of creating and licensing software in the field of
 computational chemistry and represents and warrants to the
 licensee that it is not a competitor of Gaussian, Inc. and that
 it will not use this program in any manner prohibited above.
 ---------------------------------------------------------------
  

 Cite this work as:
 Gaussian 03, Revision D.01,
 M. J. Frisch, G. W. Trucks, H. B. Schlegel, G. E. Scuseria, 
 M. A. Robb, J. R. Cheeseman, J. A. Montgomery, Jr., T. Vreven, 
 K. N. Kudin, J. C. Burant, J. M. Millam, S. S. Iyengar, J. Tomasi, 
 V. Barone, B. Mennucci, M. Cossi, G. Scalmani, N. Rega, 
 G. A. Petersson, H. Nakatsuji, M. Hada, M. Ehara, K. Toyota, 
 R. Fukuda, J. Hasegawa, M. Ishida, T. Nakajima, Y. Honda, O. Kitao, 
 H. Nakai, M. Klene, X. Li, J. E. Knox, H. P. Hratchian, J. B. Cross, 
 V. Bakken, C. Adamo, J. Jaramillo, R. Gomperts, R. E. Stratmann, 
 O. Yazyev, A. J. Austin, R. Cammi, C. Pomelli, J. W. Ochterski, 
 P. Y. Ayala, K. Morokuma, G. A. Voth, P. Salvador, J. J. Dannenberg, 
 V. G. Zakrzewski, S. Dapprich, A. D. Daniels, M. C. Strain, 
 O. Farkas, D. K. Malick, A. D. Rabuck, K. Raghavachari, 
 J. B. Foresman, J. V. Ortiz, Q. Cui, A. G. Baboul, S. Clifford, 
 J. Cioslowski, B. B. Stefanov, G. Liu, A. Liashenko, P. Piskorz, 
 I. Komaromi, R. L. Martin, D. J. Fox, T. Keith, M. A. Al-Laham, 
 C. Y. Peng, A. Nanayakkara, M. Challacombe, P. M. W. Gill, 
 B. Johnson, W. Chen, M. W. Wong, C. Gonzalez, and J. A. Pople, 
 Gaussian, Inc., Wallingford CT, 2004.
 
 ******************************************
 Gaussian 03:  AM64L-G03RevD.01 13-Oct-2005
                30-Oct-2010 
 ******************************************
 %nprocshared=8
 Will use up to    8 processors via shared memory.
 %mem=7GB
 %chk=trimethylphosphate3
 ----------------------------------------------------------------------
 #P B3LYP/aug-cc-pVTZ Int(Grid=Ultrafine) maxdisk=40GB Density=Checkpoint Geom=
 AllCheck Pop=(MK,ReadRadii) iop(6/33=2) iop(6/42=6)
 ----------------------------------------------------------------------
 Warning!  Basis set taken from checkpoint file.
 1/29=7,38=1/1;
 2/40=1/2;
 3/5=7,6=2,11=2,16=1,25=1,30=1,67=1,74=-5,75=5/1,2,3;
 4//1;
 6/7=2,8=2,9=2,10=2,11=2,12=2,15=8,20=101,22=10,28=1,33=2,42=6/1,2;
 99/5=2/99;
 Leave Link    1 at Sat Oct 30 03:50:02 2010, MaxMem=  939524096 cpu:       1.4
 (Enter /pdc/vol/gaussian/G03RevD.01/g03/l101.exe)
 ------------------
 trimethylphosphate
 ------------------
 Redundant internal coordinates taken from checkpoint file:
 trimethylphosphate3.chk
 Charge =  0 Multiplicity = 1
 H,0,0.002256096,0.,0.0006583334
 C,0,0.0021807149,0.,1.0867465055
 O,0,1.3836193894,0.,1.4860659877
 P,0,1.8492851588,0.,2.999450209
 O,0,1.0756232424,1.2755950065,3.5917065731
 C,0,1.5966802193,2.0108207863,4.7115767054
 H,0,1.166698504,3.0073255526,4.6558062202
 O,0,3.3058822878,0.,3.2069677497
 O,0,1.0756232424,-1.2755950065,3.5917065731
 C,0,1.5966802193,-2.0108207863,4.7115767054
 H,0,1.166698504,-3.0073255526,4.6558062202
 H,0,-0.4991161918,-0.8927061182,1.4576295044
 H,0,-0.4991161918,0.8927061182,1.4576295044
 H,0,1.2934322554,1.5379389879,5.6462206841
 H,0,2.6820495907,2.0665998964,4.6592650061
 H,0,2.6820495907,-2.0665998964,4.6592650061
 H,0,1.2934322554,-1.5379389879,5.6462206841
 Recover connectivity data from disk.
                    Isotopes and Nuclear Properties:
 (Nuclear quadrupole moments (NQMom) in fm**2, nuclear magnetic moments (NMagM)
  in nuclear magnetons)

  Atom         1           2           3           4           5           6           7           8           9          10
 IAtWgt=           1          12          16          31          16          12           1          16          16          12
 AtmWgt=   1.0078250  12.0000000  15.9949146  30.9737634  15.9949146  12.0000000   1.0078250  15.9949146  15.9949146  12.0000000
 NucSpn=           1           0           0           1           0           0           1           0           0           0
 AtZEff=  -1.0000000  -3.6000000  -5.6000000 -12.9400000  -5.6000000  -3.6000000  -1.0000000  -5.6000000  -5.6000000  -3.6000000
 NQMom=    0.0000000   0.0000000   0.0000000   0.0000000   0.0000000   0.0000000   0.0000000   0.0000000   0.0000000   0.0000000
 NMagM=    2.7928460   0.0000000   0.0000000   1.1316000   0.0000000   0.0000000   2.7928460   0.0000000   0.0000000   0.0000000

  Atom        11          12          13          14          15          16          17
 IAtWgt=           1           1           1           1           1           1           1
 AtmWgt=   1.0078250   1.0078250   1.0078250   1.0078250   1.0078250   1.0078250   1.0078250
 NucSpn=           1           1           1           1           1           1           1
 AtZEff=  -1.0000000  -1.0000000  -1.0000000  -1.0000000  -1.0000000  -1.0000000  -1.0000000
 NQMom=    0.0000000   0.0000000   0.0000000   0.0000000   0.0000000   0.0000000   0.0000000
 NMagM=    2.7928460   2.7928460   2.7928460   2.7928460   2.7928460   2.7928460   2.7928460
 Leave Link  101 at Sat Oct 30 03:50:06 2010, MaxMem=  939524096 cpu:       0.4
 (Enter /pdc/vol/gaussian/G03RevD.01/g03/l202.exe)
                          Input orientation:                          
 ---------------------------------------------------------------------
 Center     Atomic     Atomic              Coordinates (Angstroms)
 Number     Number      Type              X           Y           Z
 ---------------------------------------------------------------------
    1          1             0        0.002256    0.000000    0.000658
    2          6             0        0.002181    0.000000    1.086747
    3          8             0        1.383619    0.000000    1.486066
    4         15             0        1.849285    0.000000    2.999450
    5          8             0        1.075623    1.275595    3.591707
    6          6             0        1.596680    2.010821    4.711577
    7          1             0        1.166699    3.007326    4.655806
    8          8             0        3.305882    0.000000    3.206968
    9          8             0        1.075623   -1.275595    3.591707
   10          6             0        1.596680   -2.010821    4.711577
   11          1             0        1.166699   -3.007326    4.655806
   12          1             0       -0.499116   -0.892706    1.457630
   13          1             0       -0.499116    0.892706    1.457630
   14          1             0        1.293432    1.537939    5.646221
   15          1             0        2.682050    2.066600    4.659265
   16          1             0        2.682050   -2.066600    4.659265
   17          1             0        1.293432   -1.537939    5.646221
 ---------------------------------------------------------------------
                    Distance matrix (angstroms):
                    1          2          3          4          5
     1  H    0.000000
     2  C    1.086088   0.000000
     3  O    2.028448   1.437995   0.000000
     4  P    3.521969   2.658990   1.583407   0.000000
     5  O    3.959152   3.009027   2.481074   1.605136   0.000000
     6  C    5.364545   4.441309   3.806930   2.653033   1.437417
     7  H    5.663068   4.810228   4.374736   3.500492   2.034575
     8  O    4.603734   3.925530   2.580038   1.471305   2.597926
     9  O    3.959152   3.009027   2.481074   1.605136   2.551190
    10  C    5.364545   4.441309   3.806930   2.653033   3.510860
    11  H    5.663068   4.810228   4.374736   3.500492   4.414070
    12  H    1.780748   1.088934   2.083849   2.947732   3.425729
    13  H    1.780748   1.088934   2.083849   2.947732   2.679682
    14  H    5.992059   4.982107   4.436246   3.111209   2.082617
    15  H    5.758016   4.920917   4.003242   2.778366   2.084700
    16  H    5.758016   4.920917   4.003242   2.778366   3.858828
    17  H    5.992059   4.982107   4.436246   3.111209   3.490622
                    6          7          8          9         10
     6  C    0.000000
     7  H    1.086746   0.000000
     8  O    3.037864   3.964751   0.000000
     9  O    3.510860   4.414070   2.597926   0.000000
    10  C    4.021642   5.036843   3.037864   1.437417   0.000000
    11  H    5.036843   6.014651   3.964751   2.034575   1.086746
    12  H    4.838492   5.311640   4.281953   2.679682   4.028736
    13  H    4.028736   4.180298   4.281953   3.425729   4.838492
    14  H    1.090475   1.776536   3.516414   3.490622   3.682284
    15  H    1.088060   1.783610   2.601763   3.858828   4.219730
    16  H    4.219730   5.295377   2.601763   2.084700   1.088060
    17  H    3.682284   4.653645   3.516414   2.082617   1.090475
                   11         12         13         14         15
    11  H    0.000000
    12  H    4.180298   0.000000
    13  H    5.311640   1.785412   0.000000
    14  H    4.653645   5.163871   4.601505   0.000000
    15  H    5.295377   5.397016   4.663509   1.783766   0.000000
    16  H    1.783610   4.663509   5.397016   3.986858   4.133200
    17  H    1.776536   4.601505   5.163871   3.075878   3.986858
                   16         17
    16  H    0.000000
    17  H    1.783766   0.000000
 Stoichiometry    C3H9O4P
 Framework group  CS[SG(CHO2P),X(C2H8O2)]
 Deg. of freedom    25
 Full point group                 CS
 Largest Abelian subgroup         CS      NOp   2
 Largest concise Abelian subgroup CS      NOp   2
                         Standard orientation:                         
 ---------------------------------------------------------------------
 Center     Atomic     Atomic              Coordinates (Angstroms)
 Number     Number      Type              X           Y           Z
 ---------------------------------------------------------------------
    1          1             0       -0.012518    3.521128    0.000000
    2          6             0       -0.470758    2.536443    0.000000
    3          8             0        0.613286    1.591628    0.000000
    4         15             0        0.397059    0.023055    0.000000
    5          8             0       -0.554238   -0.187549    1.275595
    6          6             0       -0.554238   -1.422705    2.010821
    7          1             0       -0.920560   -1.190750    3.007326
    8          8             0        1.630160   -0.779567    0.000000
    9          8             0       -0.554238   -0.187549   -1.275595
   10          6             0       -0.554238   -1.422705   -2.010821
   11          1             0       -0.920560   -1.190750   -3.007326
   12          1             0       -1.081725    2.411652   -0.892706
   13          1             0       -1.081725    2.411652    0.892706
   14          1             0       -1.223467   -2.142185    1.537939
   15          1             0        0.451894   -1.833144    2.066600
   16          1             0        0.451894   -1.833144   -2.066600
   17          1             0       -1.223467   -2.142185   -1.537939
 ---------------------------------------------------------------------
 Rotational constants (GHZ):      1.9237494      1.6804309      1.2551337
 Leave Link  202 at Sat Oct 30 03:50:12 2010, MaxMem=  939524096 cpu:       1.0
 (Enter /pdc/vol/gaussian/G03RevD.01/g03/l301.exe)
 Basis read from chk: trimethylphosphate3.chk (5D, 7F)
 No pseudopotential information found on chk file.
 There are   323 symmetry adapted basis functions of A'  symmetry.
 There are   256 symmetry adapted basis functions of A"  symmetry.
 Integral buffers will be    131072 words long.
 Raffenetti 2 integral format.
 Two-electron integral symmetry is turned on.
   579 basis functions,   899 primitive gaussians,   669 cartesian basis functions
    37 alpha electrons       37 beta electrons
       nuclear repulsion energy       546.8948734958 Hartrees.
 IExCor= 402 DFT=T Ex=B+HF Corr=LYP ExCW=0 ScaHFX=  0.200000
 ScaDFX=  0.800000  0.720000  1.000000  0.810000
 IRadAn=      5 IRanWt=     -1 IRanGd=            0 ICorTp=0
 NAtoms=   17 NActive=   17 NUniq=   11 SFac= 1.79D+00 NAtFMM=   80 NAOKFM=F Big=F
 No density basis found on file 20724.
 Leave Link  301 at Sat Oct 30 03:50:17 2010, MaxMem=  939524096 cpu:       0.2
 (Enter /pdc/vol/gaussian/G03RevD.01/g03/l302.exe)
 NPDir=0 NMtPBC=     1 NCelOv=     1 NCel=       1 NClECP=     1 NCelD=      1
         NCelK=      1 NCelE2=     1 NClLst=     1 CellRange=     0.0.
 One-electron integrals computed using PRISM.
 One-electron integral symmetry used in STVInt
 NBasis=   579 RedAO= T  NBF=   323   256
 NBsUse=   579 1.00D-06 NBFU=   323   256
 Precomputing XC quadrature grid using
 IXCGrd= 2 IRadAn=           5 IRanWt=          -1 IRanGd=           0.
 NRdTot=    1468 NPtTot=      394488 NUsed=      404833 NTot=      404865
 NSgBfM=   669   669   669   669.
 Leave Link  302 at Sat Oct 30 03:50:23 2010, MaxMem=  939524096 cpu:       7.2
 (Enter /pdc/vol/gaussian/G03RevD.01/g03/l303.exe)
 DipDrv:  MaxL=1.
 Leave Link  303 at Sat Oct 30 03:50:28 2010, MaxMem=  939524096 cpu:       1.1
 (Enter /pdc/vol/gaussian/G03RevD.01/g03/l401.exe)
 Harris functional with IExCor=  402 diagonalized for initial guess.
 ExpMin= 2.53D-02 ExpMax= 3.12D+05 ExpMxC= 9.87D+02 IAcc=3 IRadAn=         5 AccDes= 0.00D+00
 HarFok:  IExCor= 402 AccDes= 0.00D+00 IRadAn=         5 IDoV=1
 ScaDFX=  1.000000  1.000000  1.000000  1.000000
 Harris En= -762.426963044131    
 Initial guess orbital symmetries:
       Occupied  (A') (A') (A') (A") (A') (A') (A') (A") (A') (A')
                 (A') (A") (A') (A') (A") (A') (A') (A') (A") (A')
                 (A') (A") (A') (A") (A') (A") (A') (A") (A') (A")
                 (A') (A') (A') (A") (A') (A") (A")
       Virtual   (A') (A') (A') (A") (A") (A') (A') (A') (A') (A")
                 (A') (A") (A') (A") (A') (A') (A") (A') (A") (A')
                 (A') (A") (A') (A") (A') (A') (A") (A') (A") (A')
                 (A") (A') (A") (A') (A") (A') (A") (A') (A') (A")
                 (A') (A') (A') (A") (A') (A") (A') (A") (A") (A')
                 (A') (A') (A') (A") (A") (A') (A") (A") (A') (A')
                 (A") (A') (A') (A") (A') (A') (A") (A") (A') (A')
                 (A") (A') (A") (A') (A") (A') (A') (A") (A') (A")
                 (A') (A') (A") (A') (A") (A') (A') (A') (A") (A")
                 (A') (A") (A') (A") (A') (A') (A') (A") (A") (A')
                 (A") (A') (A") (A") (A') (A') (A") (A') (A") (A')
                 (A") (A') (A') (A") (A') (A') (A') (A") (A") (A')
                 (A") (A') (A") (A") (A') (A") (A') (A') (A") (A')
                 (A") (A') (A") (A") (A') (A') (A') (A") (A') (A")
                 (A') (A") (A') (A") (A') (A') (A') (A") (A') (A")
                 (A") (A') (A') (A") (A") (A') (A') (A') (A") (A')
                 (A") (A') (A") (A") (A') (A') (A") (A") (A') (A')
                 (A') (A") (A') (A") (A") (A") (A') (A') (A') (A")
                 (A") (A') (A') (A') (A") (A") (A') (A') (A") (A')
                 (A") (A') (A") (A') (A') (A") (A") (A') (A") (A')
                 (A") (A') (A") (A') (A") (A') (A') (A") (A') (A")
                 (A') (A') (A") (A') (A") (A") (A') (A") (A') (A")
                 (A') (A') (A") (A') (A') (A") (A") (A") (A') (A')
                 (A") (A") (A') (A') (A") (A') (A') (A") (A") (A')
                 (A") (A') (A') (A") (A') (A") (A') (A") (A') (A')
                 (A') (A") (A") (A") (A') (A') (A") (A') (A") (A')
                 (A') (A") (A") (A') (A') (A") (A') (A") (A') (A')
                 (A") (A') (A") (A") (A') (A") (A') (A') (A") (A')
                 (A") (A") (A') (A") (A') (A') (A") (A') (A") (A')
                 (A') (A') (A") (A") (A') (A") (A') (A') (A") (A')
                 (A") (A') (A") (A") (A') (A') (A') (A") (A') (A")
                 (A') (A') (A') (A") (A") (A") (A") (A') (A') (A')
                 (A") (A") (A') (A') (A") (A') (A") (A') (A') (A")
                 (A') (A") (A') (A") (A') (A") (A') (A") (A') (A')
                 (A") (A') (A") (A") (A') (A') (A') (A') (A') (A")
                 (A") (A') (A") (A') (A") (A") (A") (A') (A') (A")
                 (A') (A") (A') (A') (A") (A') (A") (A') (A") (A')
                 (A') (A") (A') (A") (A') (A") (A') (A") (A") (A')
                 (A') (A') (A") (A') (A") (A") (A') (A') (A") (A')
                 (A") (A') (A') (A") (A") (A") (A') (A') (A") (A')
                 (A') (A") (A") (A') (A") (A') (A') (A') (A") (A")
                 (A') (A") (A') (A') (A") (A') (A') (A") (A') (A")
                 (A") (A") (A') (A') (A") (A') (A') (A") (A') (A")
                 (A') (A") (A') (A") (A') (A") (A') (A") (A') (A")
                 (A') (A") (A") (A") (A') (A') (A") (A') (A') (A")
                 (A') (A") (A') (A") (A') (A') (A') (A") (A") (A')
                 (A") (A') (A") (A') (A') (A") (A") (A') (A') (A')
                 (A") (A') (A") (A") (A") (A') (A') (A') (A') (A")
                 (A") (A') (A') (A") (A') (A") (A') (A") (A') (A")
                 (A') (A") (A') (A') (A") (A') (A") (A') (A") (A')
                 (A") (A') (A") (A") (A') (A') (A") (A") (A') (A')
                 (A") (A') (A") (A') (A") (A') (A") (A") (A') (A')
                 (A') (A") (A') (A") (A") (A') (A') (A") (A') (A')
                 (A") (A') (A') (A") (A') (A') (A') (A") (A') (A")
                 (A') (A')
 The electronic state of the initial guess is 1-A'.
 Leave Link  401 at Sat Oct 30 03:50:42 2010, MaxMem=  939524096 cpu:      69.3
 (Enter /pdc/vol/gaussian/G03RevD.01/g03/l601.exe)
 Using densities on the checkpoint file.

 **********************************************************************

            Population analysis using the SCF density.

 **********************************************************************

 Orbital symmetries:
 BldTbl:  Degeneracy threshold= 1.00D-02
       Occupied  (A') (A') (A') (A") (A') (A') (A') (A") (A') (A')
                 (A') (A") (A') (A') (A") (A') (A') (A') (A") (A')
                 (A') (A") (A') (A") (A') (A") (A') (A") (A') (A")
                 (A') (A') (A') (A") (A') (A") (A")
       Virtual   (A') (A') (A') (A") (A") (A') (A') (A') (A') (A")
                 (A') (A") (A') (A") (A') (A') (A") (A') (A") (A')
                 (A') (A") (A') (A") (A') (A') (A") (A') (A") (A')
                 (A") (A') (A") (A') (A") (A') (A") (A') (A') (A")
                 (A') (A') (A') (A") (A') (A") (A') (A") (A") (A')
                 (A') (A') (A') (A") (A") (A') (A") (A") (A') (A')
                 (A") (A') (A') (A") (A') (A') (A") (A") (A') (A')
                 (A") (A') (A") (A') (A") (A') (A') (A") (A') (A")
                 (A') (A') (A") (A') (A") (A') (A') (A') (A") (A")
                 (A') (A") (A') (A") (A') (A') (A') (A") (A") (A')
                 (A") (A') (A") (A") (A') (A') (A") (A') (A") (A')
                 (A") (A') (A') (A") (A') (A') (A') (A") (A") (A')
                 (A") (A') (A") (A") (A') (A") (A') (A') (A") (A')
                 (A") (A') (A") (A") (A') (A') (A') (A") (A') (A")
                 (A') (A") (A') (A") (A') (A') (A') (A") (A') (A")
                 (A") (A') (A') (A") (A") (A') (A') (A') (A") (A')
                 (A") (A') (A") (A") (A') (A') (A") (A") (A') (A')
                 (A') (A") (A') (A") (A") (A") (A') (A') (A') (A")
                 (A") (A') (A') (A') (A") (A") (A') (A') (A") (A')
                 (A") (A') (A") (A') (A') (A") (A") (A') (A") (A')
                 (A") (A') (A") (A') (A") (A') (A') (A") (A') (A")
                 (A') (A') (A") (A') (A") (A") (A') (A") (A') (A")
                 (A') (A') (A") (A') (A') (A") (A") (A") (A') (A')
                 (A") (A") (A') (A') (A") (A') (A') (A") (A") (A')
                 (A") (A') (A') (A") (A') (A") (A') (A") (A') (A')
                 (A') (A") (A") (A") (A') (A') (A") (A') (A") (A')
                 (A') (A") (A") (A') (A') (A") (A') (A") (A') (A')
                 (A") (A') (A") (A") (A') (A") (A') (A') (A") (A')
                 (A") (A") (A') (A") (A') (A') (A") (A') (A") (A')
                 (A') (A') (A") (A") (A') (A") (A') (A') (A") (A')
                 (A") (A') (A") (A") (A') (A') (A') (A") (A') (A")
                 (A') (A') (A') (A") (A") (A") (A") (A') (A') (A')
                 (A") (A") (A') (A') (A") (A') (A") (A') (A') (A")
                 (A') (A") (A') (A") (A') (A") (A') (A") (A') (A')
                 (A") (A') (A") (A") (A') (A') (A') (A') (A') (A")
                 (A") (A') (A") (A') (A") (A") (A") (A') (A') (A")
                 (A') (A") (A') (A') (A") (A') (A") (A') (A") (A')
                 (A') (A") (A') (A") (A') (A") (A') (A") (A") (A')
                 (A') (A') (A") (A') (A") (A") (A') (A') (A") (A')
                 (A") (A') (A') (A") (A") (A") (A') (A') (A") (A')
                 (A') (A") (A") (A') (A") (A') (A') (A') (A") (A")
                 (A') (A") (A') (A') (A") (A') (A') (A") (A') (A")
                 (A") (A") (A') (A') (A") (A') (A') (A") (A') (A")
                 (A') (A") (A') (A") (A') (A") (A') (A") (A') (A")
                 (A') (A") (A") (A") (A') (A') (A") (A') (A') (A")
                 (A') (A") (A') (A") (A') (A') (A') (A") (A") (A')
                 (A") (A') (A") (A') (A') (A") (A") (A') (A') (A')
                 (A") (A') (A") (A") (A") (A') (A') (A') (A') (A")
                 (A") (A') (A') (A") (A') (A") (A') (A") (A') (A")
                 (A') (A") (A') (A') (A") (A') (A") (A') (A") (A')
                 (A") (A') (A") (A") (A') (A') (A") (A") (A') (A')
                 (A") (A') (A") (A') (A") (A') (A") (A") (A') (A')
                 (A') (A") (A') (A") (A") (A') (A') (A") (A') (A')
                 (A") (A') (A') (A") (A') (A') (A') (A") (A') (A")
                 (A') (A')
 The electronic state is 1-A'.
 Alpha  occ. eigenvalues --  -76.41866 -18.98884 -18.98517 -18.98517 -18.98438
 Alpha  occ. eigenvalues --  -10.13453 -10.13445 -10.13445  -6.36700  -4.59067
 Alpha  occ. eigenvalues --   -4.58743  -4.58737  -1.09857  -1.04729  -1.04625
 Alpha  occ. eigenvalues --   -1.02658  -0.77274  -0.75073  -0.74704  -0.62353
 Alpha  occ. eigenvalues --   -0.57263  -0.57203  -0.53942  -0.52534  -0.52126
 Alpha  occ. eigenvalues --   -0.51252  -0.50892  -0.50456  -0.49910  -0.43426
 Alpha  occ. eigenvalues --   -0.43016  -0.41695  -0.40748  -0.39605  -0.39185
 Alpha  occ. eigenvalues --   -0.38791  -0.35925
 Alpha virt. eigenvalues --   -0.07339  -0.04375  -0.04176  -0.02614  -0.02455
 Alpha virt. eigenvalues --   -0.02323  -0.00564  -0.00015   0.01016   0.01165
 Alpha virt. eigenvalues --    0.01817   0.01907   0.02912   0.03223   0.03601
 Alpha virt. eigenvalues --    0.04878   0.04899   0.04914   0.05676   0.05730
 Alpha virt. eigenvalues --    0.06209   0.06277   0.06736   0.06940   0.07233
 Alpha virt. eigenvalues --    0.07534   0.07578   0.07972   0.08367   0.09140
 Alpha virt. eigenvalues --    0.09548   0.09629   0.09871   0.10751   0.11189
 Alpha virt. eigenvalues --    0.11651   0.11814   0.13104   0.14662   0.14820
 Alpha virt. eigenvalues --    0.15140   0.16531   0.17476   0.17626   0.18375
 Alpha virt. eigenvalues --    0.18946   0.19376   0.19442   0.20049   0.20373
 Alpha virt. eigenvalues --    0.20740   0.21668   0.21977   0.22233   0.22972
 Alpha virt. eigenvalues --    0.23485   0.23918   0.24328   0.24489   0.24901
 Alpha virt. eigenvalues --    0.25604   0.25666   0.25907   0.26918   0.27400
 Alpha virt. eigenvalues --    0.27480   0.27869   0.28486   0.28635   0.28890
 Alpha virt. eigenvalues --    0.29135   0.29252   0.30182   0.30404   0.31614
 Alpha virt. eigenvalues --    0.31722   0.32189   0.32717   0.33210   0.34631
 Alpha virt. eigenvalues --    0.34922   0.36662   0.36821   0.37922   0.38116
 Alpha virt. eigenvalues --    0.38320   0.38822   0.38963   0.39110   0.39733
 Alpha virt. eigenvalues --    0.40620   0.40972   0.41681   0.42296   0.42318
 Alpha virt. eigenvalues --    0.43497   0.43939   0.44175   0.44978   0.45951
 Alpha virt. eigenvalues --    0.46108   0.47399   0.47677   0.48056   0.49380
 Alpha virt. eigenvalues --    0.49640   0.50480   0.51959   0.53454   0.54128
 Alpha virt. eigenvalues --    0.54532   0.55973   0.56452   0.56975   0.57472
 Alpha virt. eigenvalues --    0.59295   0.59623   0.59668   0.60327   0.60906
 Alpha virt. eigenvalues --    0.61632   0.62399   0.63410   0.64006   0.64136
 Alpha virt. eigenvalues --    0.65040   0.65210   0.66241   0.66494   0.67432
 Alpha virt. eigenvalues --    0.68516   0.69052   0.69622   0.70302   0.70504
 Alpha virt. eigenvalues --    0.71422   0.72476   0.72534   0.73386   0.73636
 Alpha virt. eigenvalues --    0.74441   0.74602   0.75939   0.76760   0.76840
 Alpha virt. eigenvalues --    0.77237   0.77761   0.78426   0.79300   0.80286
 Alpha virt. eigenvalues --    0.81160   0.81646   0.82641   0.83767   0.84570
 Alpha virt. eigenvalues --    0.84739   0.85476   0.86586   0.86736   0.87371
 Alpha virt. eigenvalues --    0.88198   0.88587   0.89273   0.89562   0.89771
 Alpha virt. eigenvalues --    0.90103   0.90263   0.91696   0.92215   0.92646
 Alpha virt. eigenvalues --    0.94207   0.94211   0.94810   0.95271   0.96165
 Alpha virt. eigenvalues --    0.96905   0.96931   0.98168   0.98615   0.99120
 Alpha virt. eigenvalues --    1.00505   1.01297   1.03026   1.03287   1.04300
 Alpha virt. eigenvalues --    1.04354   1.04537   1.05717   1.06557   1.07626
 Alpha virt. eigenvalues --    1.08053   1.08644   1.09780   1.11120   1.12509
 Alpha virt. eigenvalues --    1.12995   1.13319   1.14258   1.15805   1.16331
 Alpha virt. eigenvalues --    1.16916   1.19079   1.19814   1.20958   1.21019
 Alpha virt. eigenvalues --    1.21476   1.22294   1.25368   1.25424   1.27364
 Alpha virt. eigenvalues --    1.27961   1.29003   1.29656   1.30994   1.31538
 Alpha virt. eigenvalues --    1.32166   1.33054   1.34041   1.34356   1.34571
 Alpha virt. eigenvalues --    1.35195   1.36348   1.36850   1.37270   1.38288
 Alpha virt. eigenvalues --    1.38978   1.39162   1.40319   1.41430   1.42022
 Alpha virt. eigenvalues --    1.42291   1.44036   1.44201   1.44723   1.45060
 Alpha virt. eigenvalues --    1.45331   1.45621   1.47008   1.47939   1.48892
 Alpha virt. eigenvalues --    1.50520   1.51123   1.51718   1.51909   1.52894
 Alpha virt. eigenvalues --    1.53477   1.54920   1.57113   1.57492   1.59279
 Alpha virt. eigenvalues --    1.60570   1.61172   1.62988   1.63553   1.63779
 Alpha virt. eigenvalues --    1.65510   1.66149   1.67570   1.68449   1.70298
 Alpha virt. eigenvalues --    1.73209   1.73559   1.74259   1.74504   1.75495
 Alpha virt. eigenvalues --    1.76759   1.77865   1.78967   1.79245   1.81062
 Alpha virt. eigenvalues --    1.81335   1.83574   1.85408   1.86017   1.86569
 Alpha virt. eigenvalues --    1.88678   1.88695   1.89382   1.89798   1.91512
 Alpha virt. eigenvalues --    1.92291   1.94726   1.95978   1.96688   1.97576
 Alpha virt. eigenvalues --    1.98571   1.99616   2.01488   2.02080   2.02647
 Alpha virt. eigenvalues --    2.04905   2.05868   2.09847   2.10906   2.13788
 Alpha virt. eigenvalues --    2.15285   2.15386   2.16168   2.18758   2.21244
 Alpha virt. eigenvalues --    2.22425   2.23714   2.24128   2.26151   2.26509
 Alpha virt. eigenvalues --    2.27171   2.29512   2.30335   2.31994   2.33009
 Alpha virt. eigenvalues --    2.34346   2.36373   2.38966   2.41094   2.41740
 Alpha virt. eigenvalues --    2.44794   2.45243   2.46435   2.47978   2.49082
 Alpha virt. eigenvalues --    2.51238   2.53859   2.55230   2.56854   2.59651
 Alpha virt. eigenvalues --    2.62159   2.62463   2.63934   2.68756   2.70230
 Alpha virt. eigenvalues --    2.71185   2.74262   2.75506   2.78638   2.84021
 Alpha virt. eigenvalues --    2.84960   2.85356   2.89690   2.90866   2.91395
 Alpha virt. eigenvalues --    2.92956   2.93635   2.96600   2.97548   2.97612
 Alpha virt. eigenvalues --    3.00529   3.02125   3.03335   3.05294   3.06581
 Alpha virt. eigenvalues --    3.08850   3.11460   3.14473   3.16335   3.16364
 Alpha virt. eigenvalues --    3.17499   3.17645   3.18403   3.19694   3.23099
 Alpha virt. eigenvalues --    3.23164   3.24846   3.26490   3.27066   3.29276
 Alpha virt. eigenvalues --    3.30388   3.31406   3.33210   3.33813   3.34898
 Alpha virt. eigenvalues --    3.35661   3.37185   3.38134   3.38230   3.40294
 Alpha virt. eigenvalues --    3.40625   3.44736   3.44972   3.46535   3.46540
 Alpha virt. eigenvalues --    3.49799   3.52819   3.55988   3.57269   3.60191
 Alpha virt. eigenvalues --    3.62082   3.62428   3.63748   3.66340   3.67605
 Alpha virt. eigenvalues --    3.69562   3.70342   3.72029   3.72662   3.74634
 Alpha virt. eigenvalues --    3.76814   3.78103   3.80336   3.80403   3.83491
 Alpha virt. eigenvalues --    3.84151   3.85626   3.87005   3.88562   3.90112
 Alpha virt. eigenvalues --    3.90451   3.98586   3.99710   3.99777   4.01830
 Alpha virt. eigenvalues --    4.05928   4.09760   4.09879   4.12309   4.13560
 Alpha virt. eigenvalues --    4.14817   4.16592   4.17398   4.21336   4.23102
 Alpha virt. eigenvalues --    4.24136   4.26811   4.27033   4.27528   4.28481
 Alpha virt. eigenvalues --    4.29280   4.30977   4.32163   4.32410   4.36494
 Alpha virt. eigenvalues --    4.39527   4.39579   4.44516   4.47167   4.48901
 Alpha virt. eigenvalues --    4.56149   4.57727   4.58451   4.60539   4.62044
 Alpha virt. eigenvalues --    4.63904   4.64065   4.67266   4.68455   4.69282
 Alpha virt. eigenvalues --    4.70505   4.80579   4.80949   4.81943   4.84031
 Alpha virt. eigenvalues --    4.84655   4.86132   4.86304   4.90785   4.91988
 Alpha virt. eigenvalues --    5.01563   5.04033   5.09445   5.10049   5.10913
 Alpha virt. eigenvalues --    5.11316   5.11522   5.13652   5.13847   5.15286
 Alpha virt. eigenvalues --    5.15936   5.16450   5.17173   5.43041   5.45655
 Alpha virt. eigenvalues --    5.45865   5.52255   5.53579   5.54185   5.56475
 Alpha virt. eigenvalues --    5.56751   5.58166   5.65754   5.69038   5.72188
 Alpha virt. eigenvalues --    6.03594   6.05696   6.08452   6.09189   6.10054
 Alpha virt. eigenvalues --    6.11821   6.12065   6.13081   6.14559   6.17610
 Alpha virt. eigenvalues --    6.18778   6.21840   6.22969   6.23751   6.24280
 Alpha virt. eigenvalues --    6.26887   6.27301   6.30221   6.30969   6.34941
 Alpha virt. eigenvalues --    6.37511   6.39201   6.41501   6.44768   6.45404
 Alpha virt. eigenvalues --    6.49680   6.50482   6.53219   6.53292   6.53753
 Alpha virt. eigenvalues --    6.55905   6.59632   6.60660   6.66105   6.67024
 Alpha virt. eigenvalues --    6.68586   6.70455   6.74315   6.74751   6.83639
 Alpha virt. eigenvalues --    6.86441   6.90700   6.91904   6.98785   7.05944
 Alpha virt. eigenvalues --    7.06242   7.08681   7.10329   7.27405   7.31681
 Alpha virt. eigenvalues --    7.36238   7.39247   7.43015   7.43044  10.63130
 Alpha virt. eigenvalues --   12.05277  13.60342  13.70689  14.15394  16.55623
 Alpha virt. eigenvalues --   16.62610  16.73545
 Entering OneElI...
 OneElI was handed938896442 working-precision words.
 Multipole integrals L=0 to 4 MinM= 0 MaxM= 0.
 Requested accuracy = 0.1000D-12
 PrsmSu:  NPrtUS=   1 ThrOK=F
 PRISM was handed   937466016 working-precision words and 18592 shell-pairs
 Electronic moments (au):
   -74.00000000    -1.42246030    -0.04277425     0.00000000
  -203.17990767  -504.08335787  -420.33871167    -6.47572779
     0.00000000     0.00000000  -178.21956345  -843.88719282
     0.00000000   224.20388780   127.22174037     0.00000000
   412.15504524   776.28958149     0.00000000     0.00000000
 -1619.41234791 -9788.71242106 -7073.05472155   254.67580181
     0.00000000   277.78345593     0.00000000     0.00000000
     0.00000000 -1274.57594103  -967.16622649 -2851.53987507
     0.00000000     0.00000000  -783.43357706
 Electronic spatial extent (au):  <R**2>=  1127.6020
 Nuclear    moments (au):
    74.00000000     0.00000000     0.00000000     0.00000000
   157.13154123   469.07412226   383.92207661     8.05828718
     0.00000000     0.00000000   165.18295833   864.23001960
     0.00000000  -237.05730528  -121.86429967     0.00000000
  -415.86054426  -792.25254031     0.00000000     0.00000000
   888.53949332  8186.03032133  5752.37100475  -241.88461784
     0.00000000  -287.86922788     0.00000000     0.00000000
     0.00000000   865.37137867   623.85778234  2352.25678484
     0.00000000     0.00000000   790.11162734
 Total      moments (au):
     0.00000000    -1.42246030    -0.04277425     0.00000000
   -46.04836644   -35.00923562   -36.41663506     1.58255939
     0.00000000     0.00000000   -13.03660512    20.34282678
     0.00000000   -12.85341748     5.35744070     0.00000000
    -3.70549902   -15.96295882     0.00000000     0.00000000
  -730.87285458 -1602.68209972 -1320.68371680    12.79118397
     0.00000000   -10.08577195     0.00000000     0.00000000
     0.00000000  -409.20456235  -343.30844415  -499.28309024
     0.00000000     0.00000000     6.67805028
 Charge=     0.0000 electrons
 Dipole moment (field-independent basis, Debye):
    X=    -3.6155    Y=    -0.1087    Z=     0.0000  Tot=     3.6172
 Quadrupole moment (field-independent basis, Debye-Ang):
   XX=   -61.9366   YY=   -47.0886   ZZ=   -48.9816
   XY=     2.1286   XZ=     0.0000   YZ=     0.0000
 Traceless Quadrupole moment (field-independent basis, Debye-Ang):
   XX=    -9.2677   YY=     5.5803   ZZ=     3.6873
   XY=     2.1286   XZ=     0.0000   YZ=     0.0000
 Octapole moment (field-independent basis, Debye-Ang**2):
  XXX=    -9.2790  YYY=    14.4792  ZZZ=     0.0000  XYY=    -9.1486
  XXY=     3.8132  XXZ=     0.0000  XZZ=    -2.6374  YZZ=   -11.3618
  YYZ=     0.0000  XYZ=     0.0000
 Hexadecapole moment (field-independent basis, Debye-Ang**3):
 XXXX=  -275.2817 YYYY=  -603.6469 ZZZZ=  -497.4328 XXXY=     4.8178
 XXXZ=     0.0000 YYYX=    -3.7988 YYYZ=     0.0000 ZZZX=     0.0000
 ZZZY=     0.0000 XXYY=  -154.1260 XXZZ=  -129.3064 YYZZ=  -188.0539
 XXYZ=     0.0000 YYXZ=     0.0000 ZZXY=     2.5153
 N-N= 5.468948734958D+02 E-N=-2.892986603440D+03  KE= 7.585993218315D+02
 Symmetry A'   KE= 6.014470264950D+02
 Symmetry A"   KE= 1.571522953364D+02
 Entering OneElI...
 OneElI was handed938112636 working-precision words.
 Calculate electrostatic properties
    NBasis =   579  MinDer = 0  MaxDer = 0
    NGrid  =    17  NMatD  =   1
 Requested accuracy = 0.1000D-12
 PrsmSu:  NPrtUS=   8 ThrOK=T
 PRISM was handed   116762263 working-precision words and 17977 shell-pairs
 PRISM was handed   116762263 working-precision words and 17977 shell-pairs
 PRISM was handed   116762263 working-precision words and 17977 shell-pairs
 PRISM was handed   116762263 working-precision words and 17977 shell-pairs
 PRISM was handed   116762263 working-precision words and 17977 shell-pairs
 PRISM was handed   116762263 working-precision words and 17977 shell-pairs
 PRISM was handed   116762263 working-precision words and 17977 shell-pairs
 PRISM was handed   116762263 working-precision words and 17977 shell-pairs
 --------------------------------------------------------
       Center         ----      EFG at Nuclei      ----
                      3XX-RR        3YY-RR        3ZZ-RR
 --------------------------------------------------------
     1   Atom        0.058126     -0.212765      0.154640
     2   Atom       -0.155234     -0.108265      0.263499
     3   Atom       -0.143416     -1.279311      1.422727
     4   Atom        0.246319      0.087229     -0.333548
     5   Atom        0.798106     -0.481843     -0.316264
     6   Atom        0.279185     -0.302320      0.023134
     7   Atom        0.104493      0.112069     -0.216562
     8   Atom       -0.429379     -0.031424      0.460803
     9   Atom        0.798106     -0.481843     -0.316264
    10   Atom        0.279185     -0.302320      0.023134
    11   Atom        0.104493      0.112069     -0.216562
    12   Atom        0.007033      0.131639     -0.138672
    13   Atom        0.007033      0.131639     -0.138672
    14   Atom       -0.010437     -0.045435      0.055872
    15   Atom       -0.213213      0.071945      0.141267
    16   Atom       -0.213213      0.071945      0.141267
    17   Atom       -0.010437     -0.045435      0.055872
 --------------------------------------------------------
                        XY            XZ            YZ
 --------------------------------------------------------
     1   Atom       -0.156663      0.000000      0.000000
     2   Atom        0.400158      0.000000      0.000000
     3   Atom        0.823014      0.000000      0.000000
     4   Atom       -0.481522      0.000000      0.000000
     5   Atom       -0.062664      0.812695      1.137653
     6   Atom       -0.031191     -0.001928      0.348960
     7   Atom        0.032375      0.135381     -0.078185
     8   Atom        0.493335      0.000000      0.000000
     9   Atom       -0.062664     -0.812695     -1.137653
    10   Atom       -0.031191      0.001928     -0.348960
    11   Atom        0.032375     -0.135381      0.078185
    12   Atom       -0.015980     -0.194129     -0.043367
    13   Atom       -0.015980      0.194129      0.043367
    14   Atom       -0.171845     -0.118061     -0.112014
    15   Atom        0.143999     -0.020612      0.019511
    16   Atom        0.143999      0.020612     -0.019511
    17   Atom       -0.171845      0.118061      0.112014
 --------------------------------------------------------


 ---------------------------------------------------------------------------------
              Nuclear Quadrupole in Principal Axis System
 ---------------------------------------------------------------------------------

       Atom             a.u.   MegaHertz   Gauss  10(-4) cm-1        Axes

              Baa    -0.2844  -151.751   -54.148   -50.619  0.4159  0.9094  0.0000
     1 H(1)   Bbb     0.1298    69.242    24.707    23.097  0.9094 -0.4159  0.0000
              Bcc     0.1546    82.508    29.441    27.522  0.0000  0.0000  1.0000
 
              Baa    -0.5326   -71.469   -25.502   -23.840  0.7275 -0.6861  0.0000
     2 C(13)  Bbb     0.2635    35.359    12.617    11.795  0.0000  0.0000  1.0000
              Bcc     0.2691    36.110    12.885    12.045  0.6861  0.7275  0.0000
 
              Baa    -1.7113   123.830    44.186    41.305 -0.4648  0.8854  0.0000
     3 O(17)  Bbb     0.2886   -20.883    -7.451    -6.966  0.8854  0.4648  0.0000
              Bcc     1.4227  -102.948   -36.734   -34.340  0.0000  0.0000  1.0000
 
              Baa    -0.3335   -72.108   -25.730   -24.053  0.0000  0.0000  1.0000
     4 P(31)  Bbb    -0.3213   -69.454   -24.783   -23.167  0.6469  0.7626  0.0000
              Bcc     0.6548   141.562    50.513    47.220  0.7626 -0.6469  0.0000
 
              Baa    -1.6916   122.405    43.677    40.830 -0.2453 -0.6708  0.6999
     5 O(17)  Bbb     0.3008   -21.766    -7.767    -7.260 -0.6112  0.6674  0.4255
              Bcc     1.3908  -100.639   -35.911   -33.570  0.7525  0.3234  0.5737
 
              Baa    -0.5254   -70.507   -25.159   -23.519  0.0314  0.8434 -0.5364
     6 C(13)  Bbb     0.2375    31.870    11.372    10.631  0.3968  0.4820  0.7812
              Bcc     0.2879    38.637    13.787    12.888  0.9174 -0.2374 -0.3195
 
              Baa    -0.2841  -151.568   -54.083   -50.558 -0.3372  0.2087  0.9180
     7 H(1)   Bbb     0.1296    69.155    24.676    23.067 -0.0626  0.9680 -0.2431
              Bcc     0.1545    82.414    29.407    27.490  0.9393  0.1394  0.3134
 
              Baa    -0.7624    55.163    19.684    18.400  0.8289 -0.5594  0.0000
     8 O(17)  Bbb     0.3015   -21.820    -7.786    -7.278  0.5594  0.8289  0.0000
              Bcc     0.4608   -33.343   -11.898   -11.122  0.0000  0.0000  1.0000
 
              Baa    -1.6916   122.405    43.677    40.830  0.2453  0.6708  0.6999
     9 O(17)  Bbb     0.3008   -21.766    -7.767    -7.260 -0.6112  0.6674 -0.4255
              Bcc     1.3908  -100.639   -35.911   -33.570  0.7525  0.3234 -0.5737
 
              Baa    -0.5254   -70.507   -25.159   -23.519  0.0314  0.8434  0.5364
    10 C(13)  Bbb     0.2375    31.870    11.372    10.631 -0.3968 -0.4820  0.7812
              Bcc     0.2879    38.637    13.787    12.888  0.9174 -0.2374  0.3195
 
              Baa    -0.2841  -151.568   -54.083   -50.558  0.3372 -0.2087  0.9180
    11 H(1)   Bbb     0.1296    69.155    24.676    23.067 -0.0626  0.9680  0.2431
              Bcc     0.1545    82.414    29.407    27.490  0.9393  0.1394 -0.3134
 
              Baa    -0.2781  -148.359   -52.938   -49.487  0.5637  0.1087  0.8188
    12 H(1)   Bbb     0.1273    67.904    24.230    22.650 -0.5649  0.7739  0.2862
              Bcc     0.1508    80.456    28.709    26.837  0.6026  0.6239 -0.4976
 
              Baa    -0.2781  -148.359   -52.938   -49.487 -0.5637 -0.1087  0.8188
    13 H(1)   Bbb     0.1273    67.904    24.230    22.650 -0.5649  0.7739 -0.2862
              Bcc     0.1508    80.456    28.709    26.837  0.6026  0.6239  0.4976
 
              Baa    -0.2793  -149.025   -53.176   -49.710  0.6127  0.6591  0.4361
    14 H(1)   Bbb     0.1272    67.888    24.224    22.645  0.1491 -0.6383  0.7552
              Bcc     0.1521    81.138    28.952    27.065  0.7761 -0.3977 -0.4894
 
              Baa    -0.2750  -146.711   -52.350   -48.937  0.9204 -0.3856  0.0637
    15 H(1)   Bbb     0.1260    67.248    23.996    22.432  0.3622  0.7804 -0.5096
              Bcc     0.1489    79.462    28.354    26.506  0.1469  0.4922  0.8580
 
              Baa    -0.2750  -146.711   -52.350   -48.937  0.9204 -0.3856 -0.0637
    16 H(1)   Bbb     0.1260    67.248    23.996    22.432  0.3622  0.7804  0.5096
              Bcc     0.1489    79.462    28.354    26.506 -0.1469 -0.4922  0.8580
 
              Baa    -0.2793  -149.025   -53.176   -49.710  0.6127  0.6591 -0.4361
    17 H(1)   Bbb     0.1272    67.888    24.224    22.645 -0.1491  0.6383  0.7552
              Bcc     0.1521    81.138    28.952    27.065  0.7761 -0.3977  0.4894
 

 ---------------------------------------------------------------------------------

 No NMR shielding tensors so no spin-rotation constants.
 Leave Link  601 at Sat Oct 30 03:50:49 2010, MaxMem=  939524096 cpu:      13.6
 (Enter /pdc/vol/gaussian/G03RevD.01/g03/l602.exe)
 Merz-Kollman atomic radii used.
 Read replacement radii for each type of atom:
 Rad(19) =   2.800000000000D+00
 Rad(20) =   2.400000000000D+00
 Rad(31) =   2.100000000000D+00
 Rad(32) =   2.100000000000D+00
 Rad(33) =   2.050000000000D+00
 Rad(34) =   1.900000000000D+00
 Rad(37) =   2.900000000000D+00
 Rad(40) =   2.300000000000D+00
 Rad(39) =   2.400000000000D+00
 Rad(47) =   2.100000000000D+00
 Rad(29) =   2.000000000000D+00
 Rad(30) =   2.100000000000D+00
 Rad(24) =   2.050000000000D+00
 Rad(55) =   3.000000000000D+00
 Rad(56) =   2.700000000000D+00
 Rad(57) =   2.500000000000D+00
 Rad(52) =   2.100000000000D+00
 Rad(80) =   2.050000000000D+00
 Rad(22) =   2.150000000000D+00
 Rad(23) =   2.050000000000D+00
 Rad(25) =   2.050000000000D+00
 Rad(28) =   2.000000000000D+00
 Rad(30) =   2.100000000000D+00
 Rad(21) =   2.300000000000D+00
 Rad(51) =   2.200000000000D+00
 Rad(82) =   2.300000000000D+00
 Rad(50) =   2.250000000000D+00
 Rad(49) =   2.200000000000D+00
 Rad(26) =   2.050000000000D+00
 Rad(38) =   2.550000000000D+00
 Rad(81) =   2.400000000000D+00
 Rad(53) =   2.100000000000D+00
 Rad(2) =   1.400000000000D+00
 Rad(10) =   1.540000000000D+00
 Rad(18) =   1.880000000000D+00
 Rad(36) =   2.020000000000D+00
 Atom Element Radius
    1     1    1.20
    2     6    1.50
    3     8    1.40
    4    15    1.80
    5     8    1.40
    6     6    1.50
    7     1    1.20
    8     8    1.40
    9     8    1.40
   10     6    1.50
   11     1    1.20
   12     1    1.20
   13     1    1.20
   14     1    1.20
   15     1    1.20
   16     1    1.20
   17     1    1.20
 Generate VDW surfaces: Layer= 4 Dens= 6 Start= 1.400 Inc= 0.200

 **********************************************************************

            Electrostatic Properties Using The SCF Density

 **********************************************************************

       Atomic Center    1 is at  -0.012518  3.521128  0.000000
       Atomic Center    2 is at  -0.470758  2.536443  0.000000
       Atomic Center    3 is at   0.613286  1.591628  0.000000
       Atomic Center    4 is at   0.397059  0.023055  0.000000
       Atomic Center    5 is at  -0.554238 -0.187549  1.275595
       Atomic Center    6 is at  -0.554238 -1.422705  2.010821
       Atomic Center    7 is at  -0.920560 -1.190750  3.007326
       Atomic Center    8 is at   1.630160 -0.779567  0.000000
       Atomic Center    9 is at  -0.554238 -0.187549 -1.275595
       Atomic Center   10 is at  -0.554238 -1.422705 -2.010821
       Atomic Center   11 is at  -0.920560 -1.190750 -3.007326
       Atomic Center   12 is at  -1.081725  2.411652 -0.892706
       Atomic Center   13 is at  -1.081725  2.411652  0.892706
       Atomic Center   14 is at  -1.223467 -2.142185  1.537939
       Atomic Center   15 is at   0.451894 -1.833144  2.066600
       Atomic Center   16 is at   0.451894 -1.833144 -2.066600
       Atomic Center   17 is at  -1.223467 -2.142185 -1.537939
      ESP Fit Center   18 is at   0.204890  3.897689  1.622755
      ESP Fit Center   19 is at  -0.229926  3.897689  1.622755
      ESP Fit Center   20 is at   0.827482  3.521128  1.454923
      ESP Fit Center   21 is at   0.714943  3.941128  1.454923
      ESP Fit Center   22 is at   0.407482  4.248589  1.454923
      ESP Fit Center   23 is at  -0.012518  4.361128  1.454923
      ESP Fit Center   24 is at  -0.432518  4.248589  1.454923
      ESP Fit Center   25 is at   1.175421  3.521128  1.187939
      ESP Fit Center   26 is at   1.095203  3.950261  1.187939
      ESP Fit Center   27 is at   0.865380  4.321437  1.187939
      ESP Fit Center   28 is at   0.516992  4.584528  1.187939
      ESP Fit Center   29 is at   0.097091  4.704000  1.187939
      ESP Fit Center   30 is at  -0.337613  4.663718  1.187939
      ESP Fit Center   31 is at  -0.728411  4.469124  1.187939
      ESP Fit Center   32 is at   1.442405  3.521128  0.840000
      ESP Fit Center   33 is at   1.377767  3.949974  0.840000
      ESP Fit Center   34 is at   1.189596  4.340715  0.840000
      ESP Fit Center   35 is at   0.894612  4.658632  0.840000
      ESP Fit Center   36 is at   0.519025  4.875477  0.840000
      ESP Fit Center   37 is at   0.096209  4.971982  0.840000
      ESP Fit Center   38 is at  -0.336269  4.939573  0.840000
      ESP Fit Center   39 is at  -0.739979  4.781128  0.840000
      ESP Fit Center   40 is at  -1.079052  4.510727  0.840000
      ESP Fit Center   41 is at   1.610237  3.521128  0.434816
      ESP Fit Center   42 is at   1.554943  3.941128  0.434816
      ESP Fit Center   43 is at   1.392829  4.332505  0.434816
      ESP Fit Center   44 is at   1.134943  4.668589  0.434816
      ESP Fit Center   45 is at   0.798860  4.926475  0.434816
      ESP Fit Center   46 is at   0.407482  5.088589  0.434816
      ESP Fit Center   47 is at  -0.012518  5.143883  0.434816
      ESP Fit Center   48 is at  -0.432518  5.088589  0.434816
      ESP Fit Center   49 is at  -0.823896  4.926475  0.434816
      ESP Fit Center   50 is at  -1.159979  4.668589  0.434816
      ESP Fit Center   51 is at   1.667482  3.521128  0.000000
      ESP Fit Center   52 is at   1.614702  3.938927  0.000000
      ESP Fit Center   53 is at   1.459677  4.330474  0.000000
      ESP Fit Center   54 is at   1.212149  4.671167  0.000000
      ESP Fit Center   55 is at   0.887671  4.939599  0.000000
      ESP Fit Center   56 is at   0.506631  5.118903  0.000000
      ESP Fit Center   57 is at   0.092970  5.197813  0.000000
      ESP Fit Center   58 is at  -0.327319  5.171370  0.000000
      ESP Fit Center   59 is at  -0.727827  5.041237  0.000000
      ESP Fit Center   60 is at  -1.083390  4.815590  0.000000
      ESP Fit Center   61 is at  -1.371666  4.508607  0.000000
      ESP Fit Center   62 is at   1.610237  3.521128 -0.434816
      ESP Fit Center   63 is at   1.554943  3.941128 -0.434816
      ESP Fit Center   64 is at   1.392829  4.332505 -0.434816
      ESP Fit Center   65 is at   1.134943  4.668589 -0.434816
      ESP Fit Center   66 is at   0.798860  4.926475 -0.434816
      ESP Fit Center   67 is at   0.407482  5.088589 -0.434816
      ESP Fit Center   68 is at  -0.012518  5.143883 -0.434816
      ESP Fit Center   69 is at  -0.432518  5.088589 -0.434816
      ESP Fit Center   70 is at  -0.823896  4.926475 -0.434816
      ESP Fit Center   71 is at  -1.159979  4.668589 -0.434816
      ESP Fit Center   72 is at   1.442405  3.521128 -0.840000
      ESP Fit Center   73 is at   1.377767  3.949974 -0.840000
      ESP Fit Center   74 is at   1.189596  4.340715 -0.840000
      ESP Fit Center   75 is at   0.894612  4.658632 -0.840000
      ESP Fit Center   76 is at   0.519025  4.875477 -0.840000
      ESP Fit Center   77 is at   0.096209  4.971982 -0.840000
      ESP Fit Center   78 is at  -0.336269  4.939573 -0.840000
      ESP Fit Center   79 is at  -0.739979  4.781128 -0.840000
      ESP Fit Center   80 is at  -1.079052  4.510727 -0.840000
      ESP Fit Center   81 is at   1.175421  3.521128 -1.187939
      ESP Fit Center   82 is at   1.095203  3.950261 -1.187939
      ESP Fit Center   83 is at   0.865380  4.321437 -1.187939
      ESP Fit Center   84 is at   0.516992  4.584528 -1.187939
      ESP Fit Center   85 is at   0.097091  4.704000 -1.187939
      ESP Fit Center   86 is at  -0.337613  4.663718 -1.187939
      ESP Fit Center   87 is at  -0.728411  4.469124 -1.187939
      ESP Fit Center   88 is at   0.827482  3.521128 -1.454923
      ESP Fit Center   89 is at   0.714943  3.941128 -1.454923
      ESP Fit Center   90 is at   0.407482  4.248589 -1.454923
      ESP Fit Center   91 is at  -0.012518  4.361128 -1.454923
      ESP Fit Center   92 is at  -0.432518  4.248589 -1.454923
      ESP Fit Center   93 is at   0.204890  3.897689 -1.622755
      ESP Fit Center   94 is at  -0.229926  3.897689 -1.622755
      ESP Fit Center   95 is at   0.332877  2.536443  1.940147
      ESP Fit Center   96 is at   0.225210  2.938261  1.940147
      ESP Fit Center   97 is at   0.225210  2.134626  1.940147
      ESP Fit Center   98 is at   0.695939  2.536443  1.746086
      ESP Fit Center   99 is at   0.617155  2.957903  1.746086
      ESP Fit Center  100 is at   0.391442  3.322442  1.746086
      ESP Fit Center  101 is at   0.049284  3.580828  1.746086
      ESP Fit Center  102 is at  -0.363109  3.698164  1.746086
      ESP Fit Center  103 is at   0.954016  2.954795  1.484924
      ESP Fit Center  104 is at   0.778439  3.339254  1.484924
      ESP Fit Center  105 is at  -0.682085  4.006253  1.484924
      ESP Fit Center  106 is at  -1.089929  4.169062  1.166697
      ESP Fit Center  107 is at  -1.559544  4.142282  0.803635
      ESP Fit Center  108 is at  -1.731482  4.165164  0.409690
      ESP Fit Center  109 is at  -2.033534  3.878042  0.409690
      ESP Fit Center  110 is at  -2.271606  3.535995  0.409690
      ESP Fit Center  111 is at  -1.637456  4.282530  0.000000
      ESP Fit Center  112 is at  -1.955683  4.021368  0.000000
      ESP Fit Center  113 is at  -2.216844  3.703141  0.000000
      ESP Fit Center  114 is at  -2.410905  3.340079  0.000000
      ESP Fit Center  115 is at  -2.530407  2.946133  0.000000
      ESP Fit Center  116 is at  -2.570758  2.536443  0.000000
      ESP Fit Center  117 is at  -2.530407  2.126754  0.000000
      ESP Fit Center  118 is at  -2.410905  1.732808  0.000000
      ESP Fit Center  119 is at  -2.216844  1.369746  0.000000
      ESP Fit Center  120 is at  -1.955683  1.051519  0.000000
      ESP Fit Center  121 is at  -1.731482  4.165164 -0.409690
      ESP Fit Center  122 is at  -2.033534  3.878042 -0.409690
      ESP Fit Center  123 is at  -2.271606  3.535995 -0.409690
      ESP Fit Center  124 is at  -1.559544  4.142282 -0.803635
      ESP Fit Center  125 is at  -1.089929  4.169062 -1.166697
      ESP Fit Center  126 is at   0.954016  2.954795 -1.484924
      ESP Fit Center  127 is at   0.778439  3.339254 -1.484924
      ESP Fit Center  128 is at  -0.682085  4.006253 -1.484924
      ESP Fit Center  129 is at   0.695939  2.536443 -1.746086
      ESP Fit Center  130 is at   0.617155  2.957903 -1.746086
      ESP Fit Center  131 is at   0.391442  3.322442 -1.746086
      ESP Fit Center  132 is at   0.049284  3.580828 -1.746086
      ESP Fit Center  133 is at  -0.363109  3.698164 -1.746086
      ESP Fit Center  134 is at   0.332877  2.536443 -1.940147
      ESP Fit Center  135 is at   0.225210  2.938261 -1.940147
      ESP Fit Center  136 is at   0.225210  2.134626 -1.940147
      ESP Fit Center  137 is at   1.020793  1.591628  1.917169
      ESP Fit Center  138 is at   0.817040  1.944539  1.917169
      ESP Fit Center  139 is at   0.409533  1.944539  1.917169
      ESP Fit Center  140 is at   1.410490  1.591628  1.790549
      ESP Fit Center  141 is at   1.303685  1.990230  1.790549
      ESP Fit Center  142 is at   1.011888  2.282027  1.790549
      ESP Fit Center  143 is at   1.765345  1.591628  1.585673
      ESP Fit Center  144 is at   1.687549  2.007800  1.585673
      ESP Fit Center  145 is at   1.464668  2.367765  1.585673
      ESP Fit Center  146 is at   1.126803  2.622909  1.585673
      ESP Fit Center  147 is at   2.069850  1.591628  1.311496
      ESP Fit Center  148 is at   2.010849  2.001989  1.311496
      ESP Fit Center  149 is at   1.838626  2.379106  1.311496
      ESP Fit Center  150 is at   1.567133  2.692425  1.311496
      ESP Fit Center  151 is at   1.218365  2.916565  1.311496
      ESP Fit Center  152 is at   2.310696  1.591628  0.980000
      ESP Fit Center  153 is at   2.257369  2.013757  0.980000
      ESP Fit Center  154 is at   2.100738  2.409361  0.980000
      ESP Fit Center  155 is at   1.850645  2.753585  0.980000
      ESP Fit Center  156 is at   1.522804  3.024798  0.980000
      ESP Fit Center  157 is at   2.477357  1.591628  0.605673
      ESP Fit Center  158 is at   2.430621  2.006423  0.605673
      ESP Fit Center  159 is at   2.292756  2.400418  0.605673
      ESP Fit Center  160 is at   2.070675  2.753857  0.605673
      ESP Fit Center  161 is at   1.775515  3.049017  0.605673
      ESP Fit Center  162 is at   2.562549  1.591628  0.204876
      ESP Fit Center  163 is at   2.516976  2.010662  0.204876
      ESP Fit Center  164 is at   2.382389  2.410102  0.204876
      ESP Fit Center  165 is at   2.165081  2.771272  0.204876
      ESP Fit Center  166 is at   1.875212  3.077282  0.204876
      ESP Fit Center  167 is at   2.562549  1.591628 -0.204876
      ESP Fit Center  168 is at   2.516976  2.010662 -0.204876
      ESP Fit Center  169 is at   2.382389  2.410102 -0.204876
      ESP Fit Center  170 is at   2.165081  2.771272 -0.204876
      ESP Fit Center  171 is at   1.875212  3.077282 -0.204876
      ESP Fit Center  172 is at   2.477357  1.591628 -0.605673
      ESP Fit Center  173 is at   2.430621  2.006423 -0.605673
      ESP Fit Center  174 is at   2.292756  2.400418 -0.605673
      ESP Fit Center  175 is at   2.070675  2.753857 -0.605673
      ESP Fit Center  176 is at   1.775515  3.049017 -0.605673
      ESP Fit Center  177 is at   2.310696  1.591628 -0.980000
      ESP Fit Center  178 is at   2.257369  2.013757 -0.980000
      ESP Fit Center  179 is at   2.100738  2.409361 -0.980000
      ESP Fit Center  180 is at   1.850645  2.753585 -0.980000
      ESP Fit Center  181 is at   1.522804  3.024798 -0.980000
      ESP Fit Center  182 is at   2.069850  1.591628 -1.311496
      ESP Fit Center  183 is at   2.010849  2.001989 -1.311496
      ESP Fit Center  184 is at   1.838626  2.379106 -1.311496
      ESP Fit Center  185 is at   1.567133  2.692425 -1.311496
      ESP Fit Center  186 is at   1.218365  2.916565 -1.311496
      ESP Fit Center  187 is at   1.765345  1.591628 -1.585673
      ESP Fit Center  188 is at   1.687549  2.007800 -1.585673
      ESP Fit Center  189 is at   1.464668  2.367765 -1.585673
      ESP Fit Center  190 is at   1.126803  2.622909 -1.585673
      ESP Fit Center  191 is at   1.410490  1.591628 -1.790549
      ESP Fit Center  192 is at   1.303685  1.990230 -1.790549
      ESP Fit Center  193 is at   1.011888  2.282027 -1.790549
      ESP Fit Center  194 is at   1.020793  1.591628 -1.917169
      ESP Fit Center  195 is at   0.817040  1.944539 -1.917169
      ESP Fit Center  196 is at   0.409533  1.944539 -1.917169
      ESP Fit Center  197 is at   1.215302  0.023055  2.383459
      ESP Fit Center  198 is at   1.105678  0.432176  2.383459
      ESP Fit Center  199 is at   0.806180  0.731674  2.383459
      ESP Fit Center  200 is at   1.596446  0.023055  2.216274
      ESP Fit Center  201 is at   1.524115  0.433269  2.216274
      ESP Fit Center  202 is at   1.315843  0.794006  2.216274
      ESP Fit Center  203 is at   0.996753  1.061755  2.216274
      ESP Fit Center  204 is at   0.605330  1.204221  2.216274
      ESP Fit Center  205 is at   1.524115 -0.387160  2.216274
      ESP Fit Center  206 is at   1.944875  0.023055  1.988634
      ESP Fit Center  207 is at   1.887478  0.440650  1.988634
      ESP Fit Center  208 is at   1.719543  0.827275  1.988634
      ESP Fit Center  209 is at   1.453526  1.154254  1.988634
      ESP Fit Center  210 is at   1.109155  1.397338  1.988634
      ESP Fit Center  211 is at   0.711972  1.538497  1.988634
      ESP Fit Center  212 is at   0.291432  1.567262  1.988634
      ESP Fit Center  213 is at   1.887478 -0.394541  1.988634
      ESP Fit Center  214 is at   2.251083  0.023055  1.706750
      ESP Fit Center  215 is at   2.201108  0.450622  1.706750
      ESP Fit Center  216 is at   2.053876  0.855139  1.706750
      ESP Fit Center  217 is at   1.817324  1.214798  1.706750
      ESP Fit Center  218 is at   2.463534  0.447726  1.378309
      ESP Fit Center  219 is at   2.335747  0.855011  1.378309
      ESP Fit Center  220 is at   2.128590  1.228236  1.378309
      ESP Fit Center  221 is at   2.548971  0.856710  1.012272
      ESP Fit Center  222 is at   2.359147  1.237928  1.012272
      ESP Fit Center  223 is at   2.692623  0.858572  0.618623
      ESP Fit Center  224 is at   2.512663  1.244499  0.618623
      ESP Fit Center  225 is at   2.764995  0.859700  0.208100
      ESP Fit Center  226 is at   2.589540  1.247848  0.208100
      ESP Fit Center  227 is at  -2.033299  0.655871  0.208100
      ESP Fit Center  228 is at   0.078067 -2.467997  0.208100
      ESP Fit Center  229 is at   0.503646 -2.486075  0.208100
      ESP Fit Center  230 is at   2.764995  0.859700 -0.208100
      ESP Fit Center  231 is at   2.589540  1.247848 -0.208100
      ESP Fit Center  232 is at  -2.033299  0.655871 -0.208100
      ESP Fit Center  233 is at   0.078067 -2.467997 -0.208100
      ESP Fit Center  234 is at   0.503646 -2.486075 -0.208100
      ESP Fit Center  235 is at   2.692623  0.858572 -0.618623
      ESP Fit Center  236 is at   2.512663  1.244499 -0.618623
      ESP Fit Center  237 is at   2.548971  0.856710 -1.012272
      ESP Fit Center  238 is at   2.359147  1.237928 -1.012272
      ESP Fit Center  239 is at   2.463534  0.447726 -1.378309
      ESP Fit Center  240 is at   2.335747  0.855011 -1.378309
      ESP Fit Center  241 is at   2.128590  1.228236 -1.378309
      ESP Fit Center  242 is at   2.251083  0.023055 -1.706750
      ESP Fit Center  243 is at   2.201108  0.450622 -1.706750
      ESP Fit Center  244 is at   2.053876  0.855139 -1.706750
      ESP Fit Center  245 is at   1.817324  1.214798 -1.706750
      ESP Fit Center  246 is at   1.944875  0.023055 -1.988634
      ESP Fit Center  247 is at   1.887478  0.440650 -1.988634
      ESP Fit Center  248 is at   1.719543  0.827275 -1.988634
      ESP Fit Center  249 is at   1.453526  1.154254 -1.988634
      ESP Fit Center  250 is at   1.109155  1.397338 -1.988634
      ESP Fit Center  251 is at   0.711972  1.538497 -1.988634
      ESP Fit Center  252 is at   0.291432  1.567262 -1.988634
      ESP Fit Center  253 is at   1.887478 -0.394541 -1.988634
      ESP Fit Center  254 is at   1.596446  0.023055 -2.216274
      ESP Fit Center  255 is at   1.524115  0.433269 -2.216274
      ESP Fit Center  256 is at   1.315843  0.794006 -2.216274
      ESP Fit Center  257 is at   0.996753  1.061755 -2.216274
      ESP Fit Center  258 is at   0.605330  1.204221 -2.216274
      ESP Fit Center  259 is at   1.524115 -0.387160 -2.216274
      ESP Fit Center  260 is at   1.215302  0.023055 -2.383459
      ESP Fit Center  261 is at   1.105678  0.432176 -2.383459
      ESP Fit Center  262 is at   0.806180  0.731674 -2.383459
      ESP Fit Center  263 is at  -0.155636  0.502850  3.066144
      ESP Fit Center  264 is at  -0.554238  0.609655  3.066144
      ESP Fit Center  265 is at  -0.952840  0.502850  3.066144
      ESP Fit Center  266 is at   0.520025  0.228623  2.861268
      ESP Fit Center  267 is at   0.297144  0.588588  2.861268
      ESP Fit Center  268 is at  -0.040721  0.843732  2.861268
      ESP Fit Center  269 is at  -0.447940  0.959596  2.861268
      ESP Fit Center  270 is at  -0.869514  0.920531  2.861268
      ESP Fit Center  271 is at  -1.248509  0.731814  2.861268
      ESP Fit Center  272 is at  -1.533739  0.418932  2.861268
      ESP Fit Center  273 is at   0.843325  0.222812  2.587091
      ESP Fit Center  274 is at   0.671101  0.599929  2.587091
      ESP Fit Center  275 is at   0.399608  0.913248  2.587091
      ESP Fit Center  276 is at   0.050840  1.137388  2.587091
      ESP Fit Center  277 is at  -0.346948  1.254189  2.587091
      ESP Fit Center  278 is at  -0.761529  1.254189  2.587091
      ESP Fit Center  279 is at  -1.159317  1.137388  2.587091
      ESP Fit Center  280 is at  -1.508085  0.913248  2.587091
      ESP Fit Center  281 is at  -1.779578  0.599929  2.587091
      ESP Fit Center  282 is at  -1.951801  0.222812  2.587091
      ESP Fit Center  283 is at   0.355279  1.245621  2.255595
      ESP Fit Center  284 is at  -0.029710  1.426784  2.255595
      ESP Fit Center  285 is at  -0.447657  1.506511  2.255595
      ESP Fit Center  286 is at  -1.276960  1.348313  2.255595
      ESP Fit Center  287 is at  -1.636208  1.120328  2.255595
      ESP Fit Center  288 is at  -1.927472  0.810163  2.255595
      ESP Fit Center  289 is at  -2.132450  0.437309  2.255595
      ESP Fit Center  290 is at  -2.238263  0.025193  2.255595
      ESP Fit Center  291 is at  -2.011627  0.974680  1.881268
      ESP Fit Center  292 is at  -2.233708  0.621241  1.881268
      ESP Fit Center  293 is at  -2.371573  0.227246  1.881268
      ESP Fit Center  294 is at  -2.418309 -0.187549  1.881268
      ESP Fit Center  295 is at  -2.224478  0.817401  1.480471
      ESP Fit Center  296 is at  -2.401463  0.434854  1.480471
      ESP Fit Center  297 is at  -2.492074  0.023203  1.480471
      ESP Fit Center  298 is at  -2.492074 -0.398301  1.480471
      ESP Fit Center  299 is at  -2.224478  0.817401  1.070719
      ESP Fit Center  300 is at  -2.401463  0.434854  1.070719
      ESP Fit Center  301 is at  -2.492074  0.023203  1.070719
      ESP Fit Center  302 is at  -2.492074 -0.398301  1.070719
      ESP Fit Center  303 is at  -2.401463 -0.809952  1.070719
      ESP Fit Center  304 is at  -2.011627  0.974680  0.669922
      ESP Fit Center  305 is at  -2.233708  0.621241  0.669922
      ESP Fit Center  306 is at  -2.371573  0.227246  0.669922
      ESP Fit Center  307 is at  -2.418309 -0.187549  0.669922
      ESP Fit Center  308 is at  -2.371573 -0.602344  0.669922
      ESP Fit Center  309 is at  -2.233708 -0.996339  0.669922
      ESP Fit Center  310 is at  -2.132450  0.437309  0.295595
      ESP Fit Center  311 is at  -2.238263  0.025193  0.295595
      ESP Fit Center  312 is at  -2.238263 -0.400291  0.295595
      ESP Fit Center  313 is at  -2.132450 -0.812407  0.295595
      ESP Fit Center  314 is at  -1.927472 -1.185261  0.295595
      ESP Fit Center  315 is at   0.612459 -1.422705  3.756907
      ESP Fit Center  316 is at  -0.034196 -2.467089  3.756907
      ESP Fit Center  317 is at   0.307962 -2.208704  3.756907
      ESP Fit Center  318 is at   0.533675 -1.844164  3.756907
      ESP Fit Center  319 is at   0.870536 -1.004353  3.495745
      ESP Fit Center  320 is at   0.694960 -0.619894  3.495745
      ESP Fit Center  321 is at   0.418180 -0.300474  3.495745
      ESP Fit Center  322 is at  -0.765565 -2.892515  3.495745
      ESP Fit Center  323 is at  -0.342911 -2.892515  3.495745
      ESP Fit Center  324 is at   0.062622 -2.773439  3.495745
      ESP Fit Center  325 is at   0.991844 -0.611258  3.177518
      ESP Fit Center  326 is at   0.752726 -0.264835  3.177518
      ESP Fit Center  327 is at   0.437652  0.014296  3.177518
      ESP Fit Center  328 is at   0.064932  0.209914  3.177518
      ESP Fit Center  329 is at  -1.861203 -2.580574  3.177518
      ESP Fit Center  330 is at  -1.546128 -2.859705  3.177518
      ESP Fit Center  331 is at  -1.173409 -3.055324  3.177518
      ESP Fit Center  332 is at  -0.764706 -3.156060  3.177518
      ESP Fit Center  333 is at  -0.343771 -3.156060  3.177518
      ESP Fit Center  334 is at   0.064932 -3.055324  3.177518
      ESP Fit Center  335 is at   0.990299 -0.248578  2.814456
      ESP Fit Center  336 is at   0.701786  0.056002  2.814456
      ESP Fit Center  337 is at  -2.392825 -2.042197  2.814456
      ESP Fit Center  338 is at  -0.868119 -3.337293  2.814456
      ESP Fit Center  339 is at  -0.449201 -3.360006  2.814456
      ESP Fit Center  340 is at  -0.035194 -3.292133  2.814456
      ESP Fit Center  341 is at   1.136246 -0.246093  2.420510
      ESP Fit Center  342 is at  -2.355085 -0.423153  2.420510
      ESP Fit Center  343 is at  -2.519430 -0.806122  2.420510
      ESP Fit Center  344 is at  -2.603320 -1.214333  2.420510
      ESP Fit Center  345 is at  -2.603320 -1.631076  2.420510
      ESP Fit Center  346 is at  -0.658558 -3.479710  2.420510
      ESP Fit Center  347 is at  -0.242350 -3.458603  2.420510
      ESP Fit Center  348 is at  -2.494385 -0.619069  2.010821
      ESP Fit Center  349 is at  -2.613887 -1.013015  2.010821
      ESP Fit Center  350 is at  -0.144549 -3.482354  2.010821
      ESP Fit Center  351 is at  -2.519430 -0.806122  1.601131
      ESP Fit Center  352 is at  -0.035194 -3.292133  1.207186
      ESP Fit Center  353 is at   0.064932 -3.055324  0.844123
      ESP Fit Center  354 is at   0.062622 -2.773439  0.525897
      ESP Fit Center  355 is at   0.418180 -2.544936  0.525897
      ESP Fit Center  356 is at  -0.034196 -2.467089  0.264735
      ESP Fit Center  357 is at  -0.920560 -1.190750  4.687326
      ESP Fit Center  358 is at  -0.485744 -1.190750  4.630081
      ESP Fit Center  359 is at  -0.703152 -0.814188  4.630081
      ESP Fit Center  360 is at  -1.137968 -0.814188  4.630081
      ESP Fit Center  361 is at  -1.355376 -1.190750  4.630081
      ESP Fit Center  362 is at  -1.137968 -1.567311  4.630081
      ESP Fit Center  363 is at  -0.703152 -1.567311  4.630081
      ESP Fit Center  364 is at  -0.080560 -1.190750  4.462248
      ESP Fit Center  365 is at  -0.193098 -0.770750  4.462248
      ESP Fit Center  366 is at  -0.500560 -0.463288  4.462248
      ESP Fit Center  367 is at  -0.920560 -0.350750  4.462248
      ESP Fit Center  368 is at  -1.340560 -0.463288  4.462248
      ESP Fit Center  369 is at  -1.648021 -0.770750  4.462248
      ESP Fit Center  370 is at  -1.760560 -1.190750  4.462248
      ESP Fit Center  371 is at  -1.648021 -1.610750  4.462248
      ESP Fit Center  372 is at  -1.340560 -1.918211  4.462248
      ESP Fit Center  373 is at  -0.920560 -2.030750  4.462248
      ESP Fit Center  374 is at  -0.500560 -1.918211  4.462248
      ESP Fit Center  375 is at  -0.193098 -1.610750  4.462248
      ESP Fit Center  376 is at   0.267380 -1.190750  4.195265
      ESP Fit Center  377 is at   0.187161 -0.761616  4.195265
      ESP Fit Center  378 is at  -0.042662 -0.390440  4.195265
      ESP Fit Center  379 is at  -0.391050 -0.127350  4.195265
      ESP Fit Center  380 is at  -0.810951 -0.007878  4.195265
      ESP Fit Center  381 is at  -1.245655 -0.048159  4.195265
      ESP Fit Center  382 is at  -1.636453 -0.242753  4.195265
      ESP Fit Center  383 is at  -1.930566 -0.565380  4.195265
      ESP Fit Center  384 is at  -2.088272 -0.972466  4.195265
      ESP Fit Center  385 is at  -2.088272 -1.409033  4.195265
      ESP Fit Center  386 is at  -1.930566 -1.816119  4.195265
      ESP Fit Center  387 is at  -1.636453 -2.138746  4.195265
      ESP Fit Center  388 is at  -1.245655 -2.333340  4.195265
      ESP Fit Center  389 is at  -0.810951 -2.373621  4.195265
      ESP Fit Center  390 is at  -0.391050 -2.254149  4.195265
      ESP Fit Center  391 is at  -0.042662 -1.991059  4.195265
      ESP Fit Center  392 is at   0.187161 -1.619883  4.195265
      ESP Fit Center  393 is at   0.534363 -1.190750  3.847326
      ESP Fit Center  394 is at   0.469725 -0.761904  3.847326
      ESP Fit Center  395 is at   0.281554 -0.371162  3.847326
      ESP Fit Center  396 is at  -0.013430 -0.053245  3.847326
      ESP Fit Center  397 is at  -0.389017  0.163600  3.847326
      ESP Fit Center  398 is at  -0.811833  0.260105  3.847326
      ESP Fit Center  399 is at  -1.244310  0.227695  3.847326
      ESP Fit Center  400 is at  -1.648021  0.069250  3.847326
      ESP Fit Center  401 is at  -1.987094 -0.201151  3.847326
      ESP Fit Center  402 is at  -2.231400 -0.559482  3.847326
      ESP Fit Center  403 is at  -2.359232 -0.973905  3.847326
      ESP Fit Center  404 is at  -2.359232 -1.407595  3.847326
      ESP Fit Center  405 is at  -2.231400 -1.822017  3.847326
      ESP Fit Center  406 is at  -1.987094 -2.180348  3.847326
      ESP Fit Center  407 is at  -1.648021 -2.450750  3.847326
      ESP Fit Center  408 is at  -1.244310 -2.609194  3.847326
      ESP Fit Center  409 is at  -0.811833 -2.641604  3.847326
      ESP Fit Center  410 is at  -0.389017 -2.545099  3.847326
      ESP Fit Center  411 is at  -0.013430 -2.328254  3.847326
      ESP Fit Center  412 is at   0.281554 -2.010337  3.847326
      ESP Fit Center  413 is at   0.469725 -1.619596  3.847326
      ESP Fit Center  414 is at   0.226902 -0.043288  3.442142
      ESP Fit Center  415 is at  -0.109182  0.214598  3.442142
      ESP Fit Center  416 is at  -0.500560  0.376712  3.442142
      ESP Fit Center  417 is at  -0.920560  0.432006  3.442142
      ESP Fit Center  418 is at  -1.340560  0.376712  3.442142
      ESP Fit Center  419 is at  -1.731937  0.214598  3.442142
      ESP Fit Center  420 is at  -2.068021 -0.043288  3.442142
      ESP Fit Center  421 is at  -2.325907 -0.379372  3.442142
      ESP Fit Center  422 is at  -2.488021 -0.770750  3.442142
      ESP Fit Center  423 is at  -2.543315 -1.190750  3.442142
      ESP Fit Center  424 is at  -2.488021 -1.610750  3.442142
      ESP Fit Center  425 is at  -2.325907 -2.002127  3.442142
      ESP Fit Center  426 is at  -2.068021 -2.338211  3.442142
      ESP Fit Center  427 is at  -1.731937 -2.596097  3.442142
      ESP Fit Center  428 is at  -1.340560 -2.758211  3.442142
      ESP Fit Center  429 is at  -1.235360  0.459493  3.007326
      ESP Fit Center  430 is at  -1.635869  0.329360  3.007326
      ESP Fit Center  431 is at  -1.991432  0.103713  3.007326
      ESP Fit Center  432 is at  -2.279708 -0.203270  3.007326
      ESP Fit Center  433 is at  -2.482584 -0.572300  3.007326
      ESP Fit Center  434 is at  -2.587312 -0.980190  3.007326
      ESP Fit Center  435 is at  -2.587312 -1.401309  3.007326
      ESP Fit Center  436 is at  -2.482584 -1.809199  3.007326
      ESP Fit Center  437 is at  -2.279708 -2.178229  3.007326
      ESP Fit Center  438 is at  -2.068021 -0.043288  2.572510
      ESP Fit Center  439 is at  -2.325907 -0.379372  2.572510
      ESP Fit Center  440 is at  -2.488021 -0.770750  2.572510
      ESP Fit Center  441 is at   2.037667 -0.779567  1.917169
      ESP Fit Center  442 is at   2.427363 -0.779567  1.790549
      ESP Fit Center  443 is at   2.320558 -0.380965  1.790549
      ESP Fit Center  444 is at   2.320558 -1.178169  1.790549
      ESP Fit Center  445 is at   2.782219 -0.779567  1.585673
      ESP Fit Center  446 is at   2.704423 -0.363395  1.585673
      ESP Fit Center  447 is at   2.481542 -0.003430  1.585673
      ESP Fit Center  448 is at   2.143677 -1.810848  1.585673
      ESP Fit Center  449 is at   2.481542 -1.555704  1.585673
      ESP Fit Center  450 is at   2.704423 -1.195739  1.585673
      ESP Fit Center  451 is at   3.086723 -0.779567  1.311496
      ESP Fit Center  452 is at   3.027722 -0.369206  1.311496
      ESP Fit Center  453 is at   2.855499  0.007911  1.311496
      ESP Fit Center  454 is at   2.584006  0.321230  1.311496
      ESP Fit Center  455 is at   2.235238 -2.104504  1.311496
      ESP Fit Center  456 is at   2.584006 -1.880365  1.311496
      ESP Fit Center  457 is at   2.855499 -1.567045  1.311496
      ESP Fit Center  458 is at   3.027722 -1.189929  1.311496
      ESP Fit Center  459 is at   3.327569 -0.779567  0.980000
      ESP Fit Center  460 is at   3.274242 -0.357438  0.980000
      ESP Fit Center  461 is at   3.117611  0.038166  0.980000
      ESP Fit Center  462 is at   2.867518  0.382390  0.980000
      ESP Fit Center  463 is at   1.736741 -2.473627  0.980000
      ESP Fit Center  464 is at   2.154688 -2.393900  0.980000
      ESP Fit Center  465 is at   2.539677 -2.212738  0.980000
      ESP Fit Center  466 is at   2.867518 -1.941524  0.980000
      ESP Fit Center  467 is at   3.117611 -1.597301  0.980000
      ESP Fit Center  468 is at   3.274242 -1.201696  0.980000
      ESP Fit Center  469 is at   3.494230 -0.779567  0.605673
      ESP Fit Center  470 is at   3.447494 -0.364772  0.605673
      ESP Fit Center  471 is at   3.309629  0.029223  0.605673
      ESP Fit Center  472 is at   3.087549  0.382662  0.605673
      ESP Fit Center  473 is at   2.792389  0.677822  0.605673
      ESP Fit Center  474 is at   1.215365 -2.596902  0.605673
      ESP Fit Center  475 is at   1.630160 -2.643638  0.605673
      ESP Fit Center  476 is at   2.044954 -2.596902  0.605673
      ESP Fit Center  477 is at   2.438950 -2.459037  0.605673
      ESP Fit Center  478 is at   2.792389 -2.236956  0.605673
      ESP Fit Center  479 is at   3.087549 -1.941796  0.605673
      ESP Fit Center  480 is at   3.309629 -1.588357  0.605673
      ESP Fit Center  481 is at   3.447494 -1.194362  0.605673
      ESP Fit Center  482 is at   3.579423 -0.779567  0.204876
      ESP Fit Center  483 is at   3.533850 -0.360533  0.204876
      ESP Fit Center  484 is at   3.399263  0.038907  0.204876
      ESP Fit Center  485 is at   3.181954  0.400077  0.204876
      ESP Fit Center  486 is at   2.892086  0.706087  0.204876
      ESP Fit Center  487 is at   0.908663 -2.590387  0.204876
      ESP Fit Center  488 is at   1.314804 -2.703151  0.204876
      ESP Fit Center  489 is at   1.735691 -2.725971  0.204876
      ESP Fit Center  490 is at   2.151643 -2.657779  0.204876
      ESP Fit Center  491 is at   2.543211 -2.501764  0.204876
      ESP Fit Center  492 is at   2.892086 -2.265221  0.204876
      ESP Fit Center  493 is at   3.181954 -1.959211  0.204876
      ESP Fit Center  494 is at   3.399263 -1.598041  0.204876
      ESP Fit Center  495 is at   3.533850 -1.198601  0.204876
      ESP Fit Center  496 is at   3.579423 -0.779567 -0.204876
      ESP Fit Center  497 is at   3.533850 -0.360533 -0.204876
      ESP Fit Center  498 is at   3.399263  0.038907 -0.204876
      ESP Fit Center  499 is at   3.181954  0.400077 -0.204876
      ESP Fit Center  500 is at   2.892086  0.706087 -0.204876
      ESP Fit Center  501 is at   0.908663 -2.590387 -0.204876
      ESP Fit Center  502 is at   1.314804 -2.703151 -0.204876
      ESP Fit Center  503 is at   1.735691 -2.725971 -0.204876
      ESP Fit Center  504 is at   2.151643 -2.657779 -0.204876
      ESP Fit Center  505 is at   2.543211 -2.501764 -0.204876
      ESP Fit Center  506 is at   2.892086 -2.265221 -0.204876
      ESP Fit Center  507 is at   3.181954 -1.959211 -0.204876
      ESP Fit Center  508 is at   3.399263 -1.598041 -0.204876
      ESP Fit Center  509 is at   3.533850 -1.198601 -0.204876
      ESP Fit Center  510 is at   3.494230 -0.779567 -0.605673
      ESP Fit Center  511 is at   3.447494 -0.364772 -0.605673
      ESP Fit Center  512 is at   3.309629  0.029223 -0.605673
      ESP Fit Center  513 is at   3.087549  0.382662 -0.605673
      ESP Fit Center  514 is at   2.792389  0.677822 -0.605673
      ESP Fit Center  515 is at   1.215365 -2.596902 -0.605673
      ESP Fit Center  516 is at   1.630160 -2.643638 -0.605673
      ESP Fit Center  517 is at   2.044954 -2.596902 -0.605673
      ESP Fit Center  518 is at   2.438950 -2.459037 -0.605673
      ESP Fit Center  519 is at   2.792389 -2.236956 -0.605673
      ESP Fit Center  520 is at   3.087549 -1.941796 -0.605673
      ESP Fit Center  521 is at   3.309629 -1.588357 -0.605673
      ESP Fit Center  522 is at   3.447494 -1.194362 -0.605673
      ESP Fit Center  523 is at   3.327569 -0.779567 -0.980000
      ESP Fit Center  524 is at   3.274242 -0.357438 -0.980000
      ESP Fit Center  525 is at   3.117611  0.038166 -0.980000
      ESP Fit Center  526 is at   2.867518  0.382390 -0.980000
      ESP Fit Center  527 is at   1.736741 -2.473627 -0.980000
      ESP Fit Center  528 is at   2.154688 -2.393900 -0.980000
      ESP Fit Center  529 is at   2.539677 -2.212738 -0.980000
      ESP Fit Center  530 is at   2.867518 -1.941524 -0.980000
      ESP Fit Center  531 is at   3.117611 -1.597301 -0.980000
      ESP Fit Center  532 is at   3.274242 -1.201696 -0.980000
      ESP Fit Center  533 is at   3.086723 -0.779567 -1.311496
      ESP Fit Center  534 is at   3.027722 -0.369206 -1.311496
      ESP Fit Center  535 is at   2.855499  0.007911 -1.311496
      ESP Fit Center  536 is at   2.584006  0.321230 -1.311496
[...]
 4727 Fit      -0.027638
 4728 Fit      -0.029902
 4729 Fit      -0.031532
 4730 Fit      -0.032614
 4731 Fit      -0.030982
 4732 Fit      -0.031082
 4733 Fit      -0.030561
 4734 Fit      -0.023321
 4735 Fit      -0.026561
 4736 Fit      -0.028800
 4737 Fit      -0.030238
 4738 Fit      -0.028078
 4739 Fit      -0.028179
 4740 Fit      -0.024883
 4741 Fit      -0.027022
 4742 Fit      -0.024345
 4743 Fit      -0.022622
 4744 Fit      -0.001589
 4745 Fit      -0.002368
 4746 Fit      -0.001870
 4747 Fit      -0.000224
 4748 Fit       0.002464
 4749 Fit      -0.000576
 4750 Fit      -0.001689
 4751 Fit      -0.001556
 4752 Fit      -0.000357
 4753 Fit       0.001783
 4754 Fit      -0.000445
 4755 Fit      -0.001207
 4756 Fit      -0.000822
 4757 Fit       0.000519
 4758 Fit       0.000458
 4759 Fit      -0.000548
 4760 Fit      -0.000390
 4761 Fit       0.000710
 4762 Fit       0.000126
 4763 Fit       0.000204
 4764 Fit       0.001162
 4765 Fit       0.000725
 4766 Fit       0.000815
 4767 Fit       0.001739
 4768 Fit      -0.004250
 4769 Fit       0.001008
 4770 Fit       0.001052
 4771 Fit       0.001703
 4772 Fit      -0.006131
 4773 Fit      -0.004533
 4774 Fit      -0.002806
 4775 Fit      -0.001295
 4776 Fit      -0.000198
 4777 Fit       0.000595
 4778 Fit       0.001441
 4779 Fit      -0.004848
 4780 Fit      -0.004350
 4781 Fit      -0.003269
 4782 Fit      -0.001889
 4783 Fit      -0.000460
 4784 Fit       0.000975
 4785 Fit      -0.000687
 4786 Fit       0.005528
 4787 Fit       0.000562
 4788 Fit       0.004152
 4789 Fit       0.002675
 4790 Fit      -0.001923
 4791 Fit       0.003182
 4792 Fit       0.006354
 4793 Fit       0.004440
 4794 Fit       0.001116
 4795 Fit       0.004110
 4796 Fit       0.006645
 4797 Fit       0.006379
 4798 Fit       0.003934
 4799 Fit       0.002572
 4800 Fit       0.004886
 4801 Fit       0.006950
 4802 Fit       0.008687
 4803 Fit       0.006803
 4804 Fit       0.004801
 4805 Fit       0.001829
 4806 Fit       0.003888
 4807 Fit       0.005723
 4808 Fit       0.007350
 4809 Fit       0.008814
 4810 Fit       0.008831
 4811 Fit       0.007281
 4812 Fit       0.005655
 4813 Fit       0.003631
 4814 Fit       0.005232
 4815 Fit       0.006640
 4816 Fit       0.007876
 4817 Fit       0.008980
 4818 Fit       0.009990
 4819 Fit       0.010189
 4820 Fit       0.009018
 4821 Fit       0.007748
 4822 Fit       0.006417
 4823 Fit       0.006497
 4824 Fit       0.007604
 4825 Fit       0.008550
 4826 Fit       0.009377
 4827 Fit       0.010123
 4828 Fit       0.010801
 4829 Fit       0.011393
 4830 Fit       0.011871
 4831 Fit       0.011361
 4832 Fit       0.010626
 4833 Fit       0.009708
 4834 Fit       0.008654
 4835 Fit       0.007514
 4836 Fit      -0.008064
 4837 Fit      -0.007775
 4838 Fit       0.010747
 4839 Fit       0.011168
 4840 Fit       0.011503
 4841 Fit       0.011701
 4842 Fit       0.011714
 4843 Fit       0.011505
 4844 Fit       0.011067
 4845 Fit       0.010412
 4846 Fit       0.009573
 4847 Fit       0.008592
 4848 Fit       0.007521
 4849 Fit      -0.004450
 4850 Fit      -0.004639
 4851 Fit      -0.004478
 4852 Fit      -0.004128
 4853 Fit      -0.003652
 4854 Fit      -0.002987
 4855 Fit       0.011506
 4856 Fit       0.011589
 4857 Fit       0.011539
 4858 Fit       0.011312
 4859 Fit       0.010884
 4860 Fit       0.010254
 4861 Fit       0.009443
 4862 Fit       0.008490
 4863 Fit       0.007444
 4864 Fit      -0.001212
 4865 Fit      -0.001713
 4866 Fit      -0.001783
 4867 Fit      -0.001517
 4868 Fit      -0.000994
 4869 Fit      -0.000221
 4870 Fit       0.011636
 4871 Fit       0.011372
 4872 Fit       0.010940
 4873 Fit       0.010318
 4874 Fit       0.009511
 4875 Fit       0.008552
 4876 Fit       0.007484
 4877 Fit       0.006342
 4878 Fit       0.001649
 4879 Fit       0.000961
 4880 Fit       0.000686
 4881 Fit       0.000826
 4882 Fit       0.001331
 4883 Fit       0.011097
 4884 Fit       0.010426
 4885 Fit       0.009584
 4886 Fit       0.008591
 4887 Fit       0.007490
 4888 Fit       0.006317
 4889 Fit       0.005096
 4890 Fit       0.003855
 4891 Fit       0.002663
 4892 Fit       0.003456
 4893 Fit       0.002988
 4894 Fit       0.009136
 4895 Fit       0.007950
 4896 Fit       0.006702
 4897 Fit       0.005464
 4898 Fit       0.004334
 4899 Fit       0.003467
 4900 Fit       0.004975
 4901 Fit       0.003331
 4902 Fit       0.004589
 4903 Fit       0.005747
 4904 Fit       0.006807
 4905 Fit       0.007769
 4906 Fit       0.008638
 4907 Fit       0.009430
 4908 Fit       0.010170
 4909 Fit      -0.000312
 4910 Fit       0.000933
 4911 Fit       0.002293
 4912 Fit       0.003596
 4913 Fit       0.004772
 4914 Fit       0.005822
 4915 Fit       0.006769
 4916 Fit       0.007623
 4917 Fit       0.008392
 4918 Fit       0.009080
 4919 Fit       0.009699
 4920 Fit       0.010265
 4921 Fit       0.010791
 4922 Fit       0.011282
 4923 Fit       0.001034
 4924 Fit       0.001699
 4925 Fit       0.002620
 4926 Fit       0.003687
 4927 Fit       0.004771
 4928 Fit       0.005787
 4929 Fit       0.006702
 4930 Fit       0.007518
 4931 Fit       0.008241
 4932 Fit       0.008880
 4933 Fit       0.009441
 4934 Fit       0.009934
 4935 Fit       0.010367
 4936 Fit       0.010750
 4937 Fit       0.011080
 4938 Fit       0.011341
 4939 Fit       0.011501
 4940 Fit       0.002580
 4941 Fit       0.002585
 4942 Fit       0.002895
 4943 Fit       0.003481
 4944 Fit       0.004288
 4945 Fit       0.005220
 4946 Fit       0.006172
 4947 Fit       0.007066
 4948 Fit       0.007866
 4949 Fit       0.008566
 4950 Fit       0.009167
 4951 Fit       0.009677
 4952 Fit       0.010103
 4953 Fit       0.010452
 4954 Fit       0.010726
 4955 Fit       0.010915
 4956 Fit       0.010995
 4957 Fit       0.010920
 4958 Fit       0.010639
 4959 Fit       0.004858
 4960 Fit       0.004357
 4961 Fit       0.004205
 4962 Fit       0.004389
 4963 Fit       0.004862
 4964 Fit       0.005556
 4965 Fit       0.006376
 4966 Fit       0.007221
 4967 Fit       0.008012
 4968 Fit       0.008710
 4969 Fit       0.009300
 4970 Fit       0.009781
 4971 Fit       0.010156
 4972 Fit       0.010427
 4973 Fit       0.010589
 4974 Fit       0.010624
 4975 Fit       0.010495
 4976 Fit       0.010157
 4977 Fit       0.009577
 4978 Fit       0.008758
 4979 Fit       0.007759
 4980 Fit       0.006684
 4981 Fit       0.005670
 4982 Fit       0.006036
 4983 Fit       0.005674
 4984 Fit       0.005697
 4985 Fit       0.006070
 4986 Fit       0.006700
 4987 Fit       0.007464
 4988 Fit       0.008236
 4989 Fit       0.008928
 4990 Fit       0.009494
 4991 Fit       0.009918
 4992 Fit       0.010190
 4993 Fit       0.010300
 4994 Fit       0.010221
 4995 Fit       0.009916
 4996 Fit       0.009358
 4997 Fit       0.008567
 4998 Fit       0.007639
 4999 Fit       0.006736
 5000 Fit       0.007091
 5001 Fit       0.006864
 5002 Fit       0.007139
 5003 Fit       0.007775
 5004 Fit       0.008537
 5005 Fit       0.009218
 5006 Fit       0.009694
 5007 Fit       0.009905
 5008 Fit       0.009807
 5009 Fit       0.009367
 5010 Fit       0.008622
 5011 Fit       0.007762
 5012 Fit       0.007996
 5013 Fit       0.008016
 5014 Fit       0.008694
 5015 Fit       0.009302
 5016 Fit       0.009323
 5017 Fit       0.008696
 5018 Fit       0.008735
 5019 Fit       0.008240
 5020 Fit       0.006840
 5021 Fit       0.005060
 5022 Fit       0.002702
 5023 Fit       0.010133
 5024 Fit       0.009373
 5025 Fit       0.008461
 5026 Fit       0.007331
 5027 Fit       0.005879
 5028 Fit       0.003943
 5029 Fit       0.001244
 5030 Fit       0.010375
 5031 Fit       0.009936
 5032 Fit       0.009375
 5033 Fit       0.008658
 5034 Fit       0.007730
 5035 Fit       0.006505
 5036 Fit       0.004839
 5037 Fit       0.002480
 5038 Fit       0.009916
 5039 Fit       0.009759
 5040 Fit       0.009476
 5041 Fit       0.009041
 5042 Fit       0.008419
 5043 Fit       0.007555
 5044 Fit       0.006354
 5045 Fit       0.004656
 5046 Fit       0.002177
 5047 Fit       0.008945
 5048 Fit       0.009104
 5049 Fit       0.009120
 5050 Fit       0.008980
 5051 Fit       0.008662
 5052 Fit       0.008132
 5053 Fit       0.007335
 5054 Fit       0.006177
 5055 Fit       0.004500
 5056 Fit       0.002033
 5057 Fit       0.007672
 5058 Fit       0.008131
 5059 Fit       0.008384
 5060 Fit       0.008429
 5061 Fit       0.008250
 5062 Fit       0.007814
 5063 Fit       0.007061
 5064 Fit       0.005891
 5065 Fit       0.004139
 5066 Fit       0.001538
 5067 Fit       0.004797
 5068 Fit       0.006008
 5069 Fit       0.006858
 5070 Fit       0.007409
 5071 Fit       0.007683
 5072 Fit       0.007676
 5073 Fit       0.007355
 5074 Fit       0.006664
 5075 Fit       0.005505
 5076 Fit       0.003731
 5077 Fit      -0.002133
 5078 Fit       0.000170
 5079 Fit       0.002318
 5080 Fit       0.004082
 5081 Fit       0.005396
 5082 Fit       0.006283
 5083 Fit       0.006771
 5084 Fit       0.006854
 5085 Fit       0.006494
 5086 Fit       0.005616
 5087 Fit       0.004110
 5088 Fit       0.001871
 5089 Fit      -0.000266
 5090 Fit       0.001832
 5091 Fit       0.003714
 5092 Fit       0.005059
 5093 Fit       0.005750
 5094 Fit       0.005723
 5095 Fit       0.004893
 5096 Fit       0.003190
 5097 Fit       0.000753
 5098 Fit      -0.002049
 5099 Fit       0.001367
 5100 Fit       0.003318
 5101 Fit       0.004463
 5102 Fit       0.003953
 5103 Fit       0.001971
 5104 Fit       0.000480
 5105 Fit       0.002777
 5106 Fit       0.002777
 5107 Fit       0.001367
 5108 Fit       0.003318
 5109 Fit       0.004463
 5110 Fit       0.003953
 5111 Fit       0.001971
 5112 Fit       0.000480
 5113 Fit      -0.000266
 5114 Fit       0.001832
 5115 Fit       0.003714
 5116 Fit       0.005059
 5117 Fit       0.005750
 5118 Fit       0.005723
 5119 Fit       0.004893
 5120 Fit       0.003190
 5121 Fit       0.000753
 5122 Fit      -0.002049
 5123 Fit      -0.002133
 5124 Fit       0.000170
 5125 Fit       0.002318
 5126 Fit       0.004082
 5127 Fit       0.005396
 5128 Fit       0.006283
 5129 Fit       0.006771
 5130 Fit       0.006854
 5131 Fit       0.006494
 5132 Fit       0.005616
 5133 Fit       0.004110
 5134 Fit       0.001871
 5135 Fit       0.004797
 5136 Fit       0.006008
 5137 Fit       0.006858
 5138 Fit       0.007409
 5139 Fit       0.007683
 5140 Fit       0.007676
 5141 Fit       0.007355
 5142 Fit       0.006664
 5143 Fit       0.005505
 5144 Fit       0.003731
 5145 Fit       0.007672
 5146 Fit       0.008131
 5147 Fit       0.008384
 5148 Fit       0.008429
 5149 Fit       0.008250
 5150 Fit       0.007814
 5151 Fit       0.007061
 5152 Fit       0.005891
 5153 Fit       0.004139
 5154 Fit       0.001538
 5155 Fit       0.008945
 5156 Fit       0.009104
 5157 Fit       0.009120
 5158 Fit       0.008980
 5159 Fit       0.008662
 5160 Fit       0.008132
 5161 Fit       0.007335
 5162 Fit       0.006177
 5163 Fit       0.004500
 5164 Fit       0.002033
 5165 Fit       0.009916
 5166 Fit       0.009759
 5167 Fit       0.009476
 5168 Fit       0.009041
 5169 Fit       0.008419
 5170 Fit       0.007555
 5171 Fit       0.006354
 5172 Fit       0.004656
 5173 Fit       0.002177
 5174 Fit       0.010375
 5175 Fit       0.009936
 5176 Fit       0.009375
 5177 Fit       0.008658
 5178 Fit       0.007730
 5179 Fit       0.006505
 5180 Fit       0.004839
 5181 Fit       0.002480
 5182 Fit       0.010133
 5183 Fit       0.009373
 5184 Fit       0.008461
 5185 Fit       0.007331
 5186 Fit       0.005879
 5187 Fit       0.003943
 5188 Fit       0.001244
 5189 Fit       0.008240
 5190 Fit       0.006840
 5191 Fit       0.005060
 5192 Fit       0.002702
 5193 Fit       0.011945
 5194 Fit       0.012008
 5195 Fit       0.011208
 5196 Fit       0.011536
 5197 Fit       0.011748
 5198 Fit       0.011830
 5199 Fit       0.011780
 5200 Fit       0.011610
 5201 Fit       0.010556
 5202 Fit       0.011130
 5203 Fit       0.011552
 5204 Fit       0.011814
 5205 Fit       0.011910
 5206 Fit       0.011839
 5207 Fit       0.011604
 5208 Fit       0.011217
 5209 Fit       0.010698
 5210 Fit       0.009647
 5211 Fit       0.010550
 5212 Fit       0.011242
 5213 Fit       0.011740
 5214 Fit       0.012050
 5215 Fit       0.012172
 5216 Fit       0.012106
 5217 Fit       0.011853
 5218 Fit       0.011416
 5219 Fit       0.010798
 5220 Fit       0.010011
 5221 Fit       0.009010
 5222 Fit       0.010236
 5223 Fit       0.011164
 5224 Fit       0.011844
 5225 Fit       0.012301
 5226 Fit       0.012544
 5227 Fit       0.012578
 5228 Fit       0.012404
 5229 Fit       0.012020
 5230 Fit       0.011423
 5231 Fit       0.010610
 5232 Fit       0.009577
 5233 Fit       0.008321
 5234 Fit       0.008129
 5235 Fit       0.009849
 5236 Fit       0.011120
 5237 Fit       0.012046
 5238 Fit       0.012680
 5239 Fit       0.013049
 5240 Fit       0.013166
 5241 Fit       0.013035
 5242 Fit       0.012655
 5243 Fit       0.012020
 5244 Fit       0.011119
 5245 Fit       0.009932
 5246 Fit       0.008428
 5247 Fit       0.008157
 5248 Fit       0.010247
 5249 Fit       0.011753
 5250 Fit       0.012816
 5251 Fit       0.013511
 5252 Fit       0.013880
 5253 Fit       0.013939
 5254 Fit       0.013695
 5255 Fit       0.013146
 5256 Fit       0.012277
 5257 Fit       0.011065
 5258 Fit       0.009463
 5259 Fit       0.007392
 5260 Fit       0.005070
 5261 Fit       0.008547
 5262 Fit       0.011005
 5263 Fit       0.012744
 5264 Fit       0.013940
 5265 Fit       0.014690
 5266 Fit       0.015043
 5267 Fit       0.015025
 5268 Fit       0.014642
 5269 Fit       0.013889
 5270 Fit       0.012747
 5271 Fit       0.011174
 5272 Fit       0.009089
 5273 Fit       0.006340
 5274 Fit       0.000585
 5275 Fit       0.000151
 5276 Fit       0.004852
 5277 Fit       0.003122
 5278 Fit       0.001648
 5279 Fit      -0.001860
 5280 Fit      -0.002556
 5281 Fit      -0.002577
 5282 Fit       0.006209
 5283 Fit       0.004331
 5284 Fit       0.002547
 5285 Fit       0.000859
 5286 Fit      -0.000659
 5287 Fit      -0.004759
 5288 Fit      -0.005739
 5289 Fit      -0.006047
 5290 Fit       0.005971
 5291 Fit       0.004050
 5292 Fit       0.002166
 5293 Fit       0.000286
 5294 Fit      -0.001566
 5295 Fit      -0.003301
 5296 Fit      -0.008386
 5297 Fit      -0.009724
 5298 Fit      -0.010353
 5299 Fit      -0.010109
 5300 Fit       0.005598
 5301 Fit       0.003647
 5302 Fit       0.001689
 5303 Fit      -0.000327
 5304 Fit      -0.002414
 5305 Fit      -0.004533
 5306 Fit      -0.006580
 5307 Fit      -0.013077
 5308 Fit      -0.015011
 5309 Fit      -0.016066
 5310 Fit       0.006038
 5311 Fit       0.003924
 5312 Fit       0.001798
 5313 Fit      -0.000424
 5314 Fit      -0.002795
 5315 Fit      -0.005328
 5316 Fit      -0.007979
 5317 Fit      -0.010631
 5318 Fit      -0.019273
 5319 Fit      -0.022133
 5320 Fit       0.004190
 5321 Fit       0.001911
 5322 Fit      -0.000482
 5323 Fit      -0.003074
 5324 Fit      -0.005924
 5325 Fit      -0.009050
 5326 Fit      -0.012416
 5327 Fit      -0.015904
 5328 Fit       0.002548
 5329 Fit      -0.000042
 5330 Fit      -0.002849
 5331 Fit      -0.005978
 5332 Fit      -0.009509
 5333 Fit      -0.013494
 5334 Fit      -0.017926
 5335 Fit       0.001845
 5336 Fit      -0.001222
 5337 Fit      -0.004609
 5338 Fit      -0.008476
 5339 Fit      -0.012971
 5340 Fit      -0.018223
 5341 Fit      -0.001698
 5342 Fit      -0.005788
 5343 Fit      -0.010551
 5344 Fit      -0.016255
 5345 Fit      -0.001842
 5346 Fit      -0.006734
 5347 Fit      -0.012510
 5348 Fit      -0.011428
 5349 Fit      -0.011428
 5350 Fit      -0.001842
 5351 Fit      -0.006734
 5352 Fit      -0.012510
 5353 Fit      -0.001698
 5354 Fit      -0.005788
 5355 Fit      -0.010551
 5356 Fit      -0.016255
 5357 Fit       0.001845
 5358 Fit      -0.001222
 5359 Fit      -0.004609
 5360 Fit      -0.008476
 5361 Fit      -0.012971
 5362 Fit      -0.018223
 5363 Fit       0.002548
 5364 Fit      -0.000042
 5365 Fit      -0.002849
 5366 Fit      -0.005978
 5367 Fit      -0.009509
 5368 Fit      -0.013494
 5369 Fit      -0.017926
 5370 Fit      -0.019273
 5371 Fit      -0.022133
 5372 Fit       0.004190
 5373 Fit       0.001911
 5374 Fit      -0.000482
 5375 Fit      -0.003074
 5376 Fit      -0.005924
 5377 Fit      -0.009050
 5378 Fit      -0.012416
 5379 Fit      -0.015904
 5380 Fit      -0.013077
 5381 Fit      -0.015011
 5382 Fit      -0.016066
 5383 Fit       0.006038
 5384 Fit       0.003924
 5385 Fit       0.001798
 5386 Fit      -0.000424
 5387 Fit      -0.002795
 5388 Fit      -0.005328
 5389 Fit      -0.007979
 5390 Fit      -0.010631
 5391 Fit      -0.008386
 5392 Fit      -0.009724
 5393 Fit      -0.010353
 5394 Fit      -0.010109
 5395 Fit       0.005598
 5396 Fit       0.003647
 5397 Fit       0.001689
 5398 Fit      -0.000327
 5399 Fit      -0.002414
 5400 Fit      -0.004533
 5401 Fit      -0.006580
 5402 Fit      -0.004759
 5403 Fit      -0.005739
 5404 Fit      -0.006047
 5405 Fit       0.005971
 5406 Fit       0.004050
 5407 Fit       0.002166
 5408 Fit       0.000286
 5409 Fit      -0.001566
 5410 Fit      -0.003301
 5411 Fit      -0.001860
 5412 Fit      -0.002556
 5413 Fit      -0.002577
 5414 Fit       0.006209
 5415 Fit       0.004331
 5416 Fit       0.002547
 5417 Fit       0.000859
 5418 Fit      -0.000659
 5419 Fit       0.000585
 5420 Fit       0.000151
 5421 Fit       0.004852
 5422 Fit       0.003122
 5423 Fit       0.001648
 5424 Fit       0.005070
 5425 Fit       0.008547
 5426 Fit       0.011005
 5427 Fit       0.012744
 5428 Fit       0.013940
 5429 Fit       0.014690
 5430 Fit       0.015043
 5431 Fit       0.015025
 5432 Fit       0.014642
 5433 Fit       0.013889
 5434 Fit       0.012747
 5435 Fit       0.011174
 5436 Fit       0.009089
 5437 Fit       0.006340
 5438 Fit       0.008157
 5439 Fit       0.010247
 5440 Fit       0.011753
 5441 Fit       0.012816
 5442 Fit       0.013511
 5443 Fit       0.013880
 5444 Fit       0.013939
 5445 Fit       0.013695
 5446 Fit       0.013146
 5447 Fit       0.012277
 5448 Fit       0.011065
 5449 Fit       0.009463
 5450 Fit       0.007392
 5451 Fit       0.008129
 5452 Fit       0.009849
 5453 Fit       0.011120
 5454 Fit       0.012046
 5455 Fit       0.012680
 5456 Fit       0.013049
 5457 Fit       0.013166
 5458 Fit       0.013035
 5459 Fit       0.012655
 5460 Fit       0.012020
 5461 Fit       0.011119
 5462 Fit       0.009932
 5463 Fit       0.008428
 5464 Fit       0.009010
 5465 Fit       0.010236
 5466 Fit       0.011164
 5467 Fit       0.011844
 5468 Fit       0.012301
 5469 Fit       0.012544
 5470 Fit       0.012578
 5471 Fit       0.012404
 5472 Fit       0.012020
 5473 Fit       0.011423
 5474 Fit       0.010610
 5475 Fit       0.009577
 5476 Fit       0.008321
 5477 Fit       0.009647
 5478 Fit       0.010550
 5479 Fit       0.011242
 5480 Fit       0.011740
 5481 Fit       0.012050
 5482 Fit       0.012172
 5483 Fit       0.012106
 5484 Fit       0.011853
 5485 Fit       0.011416
 5486 Fit       0.010798
 5487 Fit       0.010011
 5488 Fit       0.010556
 5489 Fit       0.011130
 5490 Fit       0.011552
 5491 Fit       0.011814
 5492 Fit       0.011910
 5493 Fit       0.011839
 5494 Fit       0.011604
 5495 Fit       0.011217
 5496 Fit       0.010698
 5497 Fit       0.011208
 5498 Fit       0.011536
 5499 Fit       0.011748
 5500 Fit       0.011830
 5501 Fit       0.011780
 5502 Fit       0.011610
 5503 Fit       0.011945
 5504 Fit       0.012008
 -----------------------------------------------------------------
 Leave Link  602 at Sat Oct 30 03:50:56 2010, MaxMem=  939524096 cpu:      18.0
 (Enter /pdc/vol/gaussian/G03RevD.01/g03/l9999.exe)

 This type of calculation cannot be archived.


 OPTIMIST - A PESSIMIST WHO LACKS EXPERIENCE
 Job cpu time:  0 days  0 hours  2 minutes 38.4 seconds.
 File lengths (MBytes):  RWF=     42 Int=      0 D2E=      0 Chk=     30 Scr=      1
 Normal termination of Gaussian 03 at Sat Oct 30 03:51:01 2010.

real	1m0.248s
user	1m59.789s
sys	0m38.930s
