 Entering Gaussian System, Link 0=g03
 Initial command:
 /pdc/vol/gaussian/G03RevD.01/g03/l1.exe /scratch/Gau-5215.inp -scrdir=/scratch/
 Default is to use a total of   8 processors:
                                8 via shared-memory
                                1 via Linda
 Entering Link 1 = /pdc/vol/gaussian/G03RevD.01/g03/l1.exe PID=      5216.
  
 Copyright (c) 1988,1990,1992,1993,1995,1998,2003,2004, Gaussian, Inc.
                  All Rights Reserved.
  
 This is the Gaussian(R) 03 program.  It is based on the
 the Gaussian(R) 98 system (copyright 1998, Gaussian, Inc.),
 the Gaussian(R) 94 system (copyright 1995, Gaussian, Inc.),
 the Gaussian 92(TM) system (copyright 1992, Gaussian, Inc.),
 the Gaussian 90(TM) system (copyright 1990, Gaussian, Inc.),
 the Gaussian 88(TM) system (copyright 1988, Gaussian, Inc.),
 the Gaussian 86(TM) system (copyright 1986, Carnegie Mellon
 University), and the Gaussian 82(TM) system (copyright 1983,
 Carnegie Mellon University). Gaussian is a federally registered
 trademark of Gaussian, Inc.
  
 This software contains proprietary and confidential information,
 including trade secrets, belonging to Gaussian, Inc.
  
 This software is provided under written license and may be
 used, copied, transmitted, or stored only in accord with that
 written license.
  
 The following legend is applicable only to US Government
 contracts under FAR:
  
                    RESTRICTED RIGHTS LEGEND
  
 Use, reproduction and disclosure by the US Government is
 subject to restrictions as set forth in subparagraphs (a)
 and (c) of the Commercial Computer Software - Restricted
 Rights clause in FAR 52.227-19.
  
 Gaussian, Inc.
 340 Quinnipiac St., Bldg. 40, Wallingford CT 06492
  
  
 ---------------------------------------------------------------
 Warning -- This program may not be used in any manner that
 competes with the business of Gaussian, Inc. or will provide
 assistance to any competitor of Gaussian, Inc.  The licensee
 of this program is prohibited from giving any competitor of
 Gaussian, Inc. access to this program.  By using this program,
 the user acknowledges that Gaussian, Inc. is engaged in the
 business of creating and licensing software in the field of
 computational chemistry and represents and warrants to the
 licensee that it is not a competitor of Gaussian, Inc. and that
 it will not use this program in any manner prohibited above.
 ---------------------------------------------------------------
  

 Cite this work as:
 Gaussian 03, Revision D.01,
 M. J. Frisch, G. W. Trucks, H. B. Schlegel, G. E. Scuseria, 
 M. A. Robb, J. R. Cheeseman, J. A. Montgomery, Jr., T. Vreven, 
 K. N. Kudin, J. C. Burant, J. M. Millam, S. S. Iyengar, J. Tomasi, 
 V. Barone, B. Mennucci, M. Cossi, G. Scalmani, N. Rega, 
 G. A. Petersson, H. Nakatsuji, M. Hada, M. Ehara, K. Toyota, 
 R. Fukuda, J. Hasegawa, M. Ishida, T. Nakajima, Y. Honda, O. Kitao, 
 H. Nakai, M. Klene, X. Li, J. E. Knox, H. P. Hratchian, J. B. Cross, 
 V. Bakken, C. Adamo, J. Jaramillo, R. Gomperts, R. E. Stratmann, 
 O. Yazyev, A. J. Austin, R. Cammi, C. Pomelli, J. W. Ochterski, 
 P. Y. Ayala, K. Morokuma, G. A. Voth, P. Salvador, J. J. Dannenberg, 
 V. G. Zakrzewski, S. Dapprich, A. D. Daniels, M. C. Strain, 
 O. Farkas, D. K. Malick, A. D. Rabuck, K. Raghavachari, 
 J. B. Foresman, J. V. Ortiz, Q. Cui, A. G. Baboul, S. Clifford, 
 J. Cioslowski, B. B. Stefanov, G. Liu, A. Liashenko, P. Piskorz, 
 I. Komaromi, R. L. Martin, D. J. Fox, T. Keith, M. A. Al-Laham, 
 C. Y. Peng, A. Nanayakkara, M. Challacombe, P. M. W. Gill, 
 B. Johnson, W. Chen, M. W. Wong, C. Gonzalez, and J. A. Pople, 
 Gaussian, Inc., Wallingford CT, 2004.
 
 ******************************************
 Gaussian 03:  AM64L-G03RevD.01 13-Oct-2005
                11-Nov-2011 
 ******************************************
 %nprocshared=8
 Will use up to    8 processors via shared memory.
 %mem=7GB
 %chk=1-butanol3
 ----------------------------------------------------------------------
 #P B3LYP/gen Int(Grid=Ultrafine) maxdisk=40GB Density=Checkpoint Geom=
 AllCheck Pop=(MK,ReadRadii) iop(6/33=2) iop(6/42=6)
 ----------------------------------------------------------------------
 Warning!  Basis set taken from checkpoint file.
 1/29=7,38=1/1;
 2/40=1/2;
 3/5=7,6=2,11=2,16=1,25=1,30=1,67=1,74=-5,75=5/1,2,3;
 4//1;
 6/7=2,8=2,9=2,10=2,11=2,12=2,15=8,20=101,22=10,28=1,33=2,42=6/1,2;
 99/5=2/99;
 Leave Link    1 at Fri Nov 11 10:15:08 2011, MaxMem=  939524096 cpu:       1.8
 (Enter /pdc/vol/gaussian/G03RevD.01/g03/l101.exe)
 ---------
 1-butanol
 ---------
 Redundant internal coordinates taken from checkpoint file:
 1-butanol3.chk
 Charge =  0 Multiplicity = 1
 C,0,0.,0.,0.
 H,0,0.,0.,1.0908
 H,0,1.0399625935,0.,-0.3320944054
 H,0,-0.4517816287,0.9366402569,-0.332275908
 C,0,-0.75626582,-1.2046566899,-0.55770701
 H,0,-1.7827751783,-1.1949770716,-0.1792368628
 H,0,-0.3015527008,-2.1250504101,-0.179333928
 C,0,-0.7778317337,-1.2390090585,-2.0862689603
 H,0,0.2441996029,-1.2595712262,-2.4737162267
 H,0,-1.2402489657,-0.3272382238,-2.4737597842
 C,0,-1.5293065256,-2.4355752801,-2.6400059688
 H,0,-2.5671449749,-2.4228419954,-2.2863939405
 H,0,-1.0672263907,-3.364900375,-2.2862418286
 O,0,-1.4894436127,-2.372559728,-4.0675599042
 H,0,-1.9636602403,-3.1261644042,-4.4291115356
 Recover connectivity data from disk.
                    Isotopes and Nuclear Properties:
 (Nuclear quadrupole moments (NQMom) in fm**2, nuclear magnetic moments (NMagM)
  in nuclear magnetons)

  Atom         1           2           3           4           5           6           7           8           9          10
 IAtWgt=          12           1           1           1          12           1           1          12           1           1
 AtmWgt=  12.0000000   1.0078250   1.0078250   1.0078250  12.0000000   1.0078250   1.0078250  12.0000000   1.0078250   1.0078250
 NucSpn=           0           1           1           1           0           1           1           0           1           1
 AtZEff=  -3.6000000  -1.0000000  -1.0000000  -1.0000000  -3.6000000  -1.0000000  -1.0000000  -3.6000000  -1.0000000  -1.0000000
 NQMom=    0.0000000   0.0000000   0.0000000   0.0000000   0.0000000   0.0000000   0.0000000   0.0000000   0.0000000   0.0000000
 NMagM=    0.0000000   2.7928460   2.7928460   2.7928460   0.0000000   2.7928460   2.7928460   0.0000000   2.7928460   2.7928460

  Atom        11          12          13          14          15
 IAtWgt=          12           1           1          16           1
 AtmWgt=  12.0000000   1.0078250   1.0078250  15.9949146   1.0078250
 NucSpn=           0           1           1           0           1
 AtZEff=  -3.6000000  -1.0000000  -1.0000000  -5.6000000  -1.0000000
 NQMom=    0.0000000   0.0000000   0.0000000   0.0000000   0.0000000
 NMagM=    0.0000000   2.7928460   2.7928460   0.0000000   2.7928460
 Leave Link  101 at Fri Nov 11 10:15:14 2011, MaxMem=  939524096 cpu:       0.7
 (Enter /pdc/vol/gaussian/G03RevD.01/g03/l202.exe)
                          Input orientation:                          
 ---------------------------------------------------------------------
 Center     Atomic     Atomic              Coordinates (Angstroms)
 Number     Number      Type              X           Y           Z
 ---------------------------------------------------------------------
    1          6             0        0.000000    0.000000    0.000000
    2          1             0        0.000000    0.000000    1.090800
    3          1             0        1.039963    0.000000   -0.332094
    4          1             0       -0.451782    0.936640   -0.332276
    5          6             0       -0.756266   -1.204657   -0.557707
    6          1             0       -1.782775   -1.194977   -0.179237
    7          1             0       -0.301553   -2.125050   -0.179334
    8          6             0       -0.777832   -1.239009   -2.086269
    9          1             0        0.244200   -1.259571   -2.473716
   10          1             0       -1.240249   -0.327238   -2.473760
   11          6             0       -1.529307   -2.435575   -2.640006
   12          1             0       -2.567145   -2.422842   -2.286394
   13          1             0       -1.067226   -3.364900   -2.286242
   14          8             0       -1.489444   -2.372560   -4.067560
   15          1             0       -1.963660   -3.126164   -4.429112
 ---------------------------------------------------------------------
                    Distance matrix (angstroms):
                    1          2          3          4          5
     1  C    0.000000
     2  H    1.090800   0.000000
     3  H    1.091700   1.762427   0.000000
     4  H    1.091700   1.762540   1.761419   0.000000
     5  C    1.527800   2.177317   2.174520   2.174553   0.000000
     6  H    2.153691   2.493843   3.069069   2.517689   1.094100
     7  H    2.153818   2.493995   2.517705   3.069187   1.094100
     8  C    2.548075   3.497704   2.813654   2.813583   1.529100
     9  H    2.786651   3.788394   2.608889   3.145394   2.162184
    10  H    2.786537   3.788323   3.145343   2.608644   2.162258
    11  C    3.903900   4.710596   4.226065   4.225934   2.539433
    12  H    4.205710   4.885267   4.764523   4.424868   2.784173
    13  H    4.205761   4.885278   4.425098   4.764452   2.784094
    14  O    4.938879   5.869937   5.097121   5.097048   3.771023
    15  H    5.765925   6.640654   5.964914   5.964581   4.487512
                    6          7          8          9         10
     6  H    0.000000
     7  H    1.749016   0.000000
     8  C    2.156066   2.155994   0.000000
     9  H    3.062260   2.512188   1.093200   0.000000
    10  H    2.512397   3.062298   1.093300   1.752950   0.000000
    11  C    2.767438   2.767438   1.517600   2.134470   2.134544
    12  H    2.561835   3.108262   2.154798   3.048269   2.487431
    13  H    3.108062   2.561746   2.154798   2.487448   3.048359
    14  O    4.073303   4.073162   2.390992   2.604726   2.604925
    15  H    4.671578   4.671771   3.233644   3.490327   3.490088
                   11         12         13         14         15
    11  C    0.000000
    12  H    1.096500   0.000000
    13  H    1.096500   1.771223   0.000000
    14  O    1.429500   2.082431   2.082331   0.000000
    15  H    1.966335   2.334544   2.335054   0.961000   0.000000
 Stoichiometry    C4H10O
 Framework group  C1[X(C4H10O)]
 Deg. of freedom    39
 Full point group                 C1
 Largest Abelian subgroup         C1      NOp   1
 Largest concise Abelian subgroup C1      NOp   1
                         Standard orientation:                         
 ---------------------------------------------------------------------
 Center     Atomic     Atomic              Coordinates (Angstroms)
 Number     Number      Type              X           Y           Z
 ---------------------------------------------------------------------
    1          6             0       -2.515503   -0.294576    0.000073
    2          1             0       -3.397306    0.347505    0.000025
    3          1             0       -2.572554   -0.937172   -0.880623
    4          1             0       -2.572408   -0.937148    0.880796
    5          6             0       -1.227399    0.526983   -0.000087
    6          1             0       -1.216875    1.184466    0.874362
    7          1             0       -1.216776    1.184307   -0.874654
    8          6             0        0.032167   -0.339989   -0.000025
    9          1             0        0.035726   -0.993381   -0.876468
   10          1             0        0.035625   -0.993464    0.876481
   11          6             0        1.311529    0.476309    0.000060
   12          1             0        1.344172    1.121940    0.885728
   13          1             0        1.344192    1.122093   -0.885495
   14          8             0        2.421672   -0.424275   -0.000124
   15          1             0        3.238066    0.082698    0.000720
 ---------------------------------------------------------------------
 Rotational constants (GHZ):     18.8808412      1.9694797      1.8655309
 Leave Link  202 at Fri Nov 11 10:15:20 2011, MaxMem=  939524096 cpu:       0.5
 (Enter /pdc/vol/gaussian/G03RevD.01/g03/l301.exe)
 Basis read from chk: 1-butanol3.chk (5D, 7F)
 No pseudopotential information found on chk file.
 There are   460 symmetry adapted basis functions of A   symmetry.
 Integral buffers will be    131072 words long.
 Raffenetti 2 integral format.
 Two-electron integral symmetry is turned on.
   460 basis functions,   645 primitive gaussians,   525 cartesian basis functions
    21 alpha electrons       21 beta electrons
       nuclear repulsion energy       184.8411847699 Hartrees.
 IExCor= 402 DFT=T Ex=B+HF Corr=LYP ExCW=0 ScaHFX=  0.200000
 ScaDFX=  0.800000  0.720000  1.000000  0.810000
 IRadAn=      5 IRanWt=     -1 IRanGd=            0 ICorTp=0
 NAtoms=   15 NActive=   15 NUniq=   15 SFac= 7.50D-01 NAtFMM=   80 NAOKFM=F Big=F
 No density basis found on file 20724.
 Leave Link  301 at Fri Nov 11 10:15:25 2011, MaxMem=  939524096 cpu:       0.4
 (Enter /pdc/vol/gaussian/G03RevD.01/g03/l302.exe)
 NPDir=0 NMtPBC=     1 NCelOv=     1 NCel=       1 NClECP=     1 NCelD=      1
         NCelK=      1 NCelE2=     1 NClLst=     1 CellRange=     0.0.
 One-electron integrals computed using PRISM.
 NBasis=   460 RedAO= T  NBF=   460
 NBsUse=   460 1.00D-06 NBFU=   460
 Precomputing XC quadrature grid using
 IXCGrd= 2 IRadAn=           5 IRanWt=          -1 IRanGd=           0.
 NRdTot=    1291 NPtTot=      347512 NUsed=      356610 NTot=      356642
 NSgBfM=   525   525   525   525.
 Leave Link  302 at Fri Nov 11 10:15:32 2011, MaxMem=  939524096 cpu:       7.8
 (Enter /pdc/vol/gaussian/G03RevD.01/g03/l303.exe)
 DipDrv:  MaxL=1.
 Leave Link  303 at Fri Nov 11 10:15:38 2011, MaxMem=  939524096 cpu:       0.8
 (Enter /pdc/vol/gaussian/G03RevD.01/g03/l401.exe)
 Harris functional with IExCor=  402 diagonalized for initial guess.
 ExpMin= 2.53D-02 ExpMax= 1.53D+04 ExpMxC= 5.22D+02 IAcc=3 IRadAn=         5 AccDes= 0.00D+00
 HarFok:  IExCor= 402 AccDes= 0.00D+00 IRadAn=         5 IDoV=1
 ScaDFX=  1.000000  1.000000  1.000000  1.000000
 Harris En= -233.891250526691    
 Initial guess orbital symmetries:
       Occupied  (A) (A) (A) (A) (A) (A) (A) (A) (A) (A) (A) (A)
                 (A) (A) (A) (A) (A) (A) (A) (A) (A)
       Virtual   (A) (A) (A) (A) (A) (A) (A) (A) (A) (A) (A) (A)
                 (A) (A) (A) (A) (A) (A) (A) (A) (A) (A) (A) (A)
                 (A) (A) (A) (A) (A) (A) (A) (A) (A) (A) (A) (A)
                 (A) (A) (A) (A) (A) (A) (A) (A) (A) (A) (A) (A)
                 (A) (A) (A) (A) (A) (A) (A) (A) (A) (A) (A) (A)
                 (A) (A) (A) (A) (A) (A) (A) (A) (A) (A) (A) (A)
                 (A) (A) (A) (A) (A) (A) (A) (A) (A) (A) (A) (A)
                 (A) (A) (A) (A) (A) (A) (A) (A) (A) (A) (A) (A)
                 (A) (A) (A) (A) (A) (A) (A) (A) (A) (A) (A) (A)
                 (A) (A) (A) (A) (A) (A) (A) (A) (A) (A) (A) (A)
                 (A) (A) (A) (A) (A) (A) (A) (A) (A) (A) (A) (A)
                 (A) (A) (A) (A) (A) (A) (A) (A) (A) (A) (A) (A)
                 (A) (A) (A) (A) (A) (A) (A) (A) (A) (A) (A) (A)
                 (A) (A) (A) (A) (A) (A) (A) (A) (A) (A) (A) (A)
                 (A) (A) (A) (A) (A) (A) (A) (A) (A) (A) (A) (A)
                 (A) (A) (A) (A) (A) (A) (A) (A) (A) (A) (A) (A)
                 (A) (A) (A) (A) (A) (A) (A) (A) (A) (A) (A) (A)
                 (A) (A) (A) (A) (A) (A) (A) (A) (A) (A) (A) (A)
                 (A) (A) (A) (A) (A) (A) (A) (A) (A) (A) (A) (A)
                 (A) (A) (A) (A) (A) (A) (A) (A) (A) (A) (A) (A)
                 (A) (A) (A) (A) (A) (A) (A) (A) (A) (A) (A) (A)
                 (A) (A) (A) (A) (A) (A) (A) (A) (A) (A) (A) (A)
                 (A) (A) (A) (A) (A) (A) (A) (A) (A) (A) (A) (A)
                 (A) (A) (A) (A) (A) (A) (A) (A) (A) (A) (A) (A)
                 (A) (A) (A) (A) (A) (A) (A) (A) (A) (A) (A) (A)
                 (A) (A) (A) (A) (A) (A) (A) (A) (A) (A) (A) (A)
                 (A) (A) (A) (A) (A) (A) (A) (A) (A) (A) (A) (A)
                 (A) (A) (A) (A) (A) (A) (A) (A) (A) (A) (A) (A)
                 (A) (A) (A) (A) (A) (A) (A) (A) (A) (A) (A) (A)
                 (A) (A) (A) (A) (A) (A) (A) (A) (A) (A) (A) (A)
                 (A) (A) (A) (A) (A) (A) (A) (A) (A) (A) (A) (A)
                 (A) (A) (A) (A) (A) (A) (A) (A) (A) (A) (A) (A)
                 (A) (A) (A) (A) (A) (A) (A) (A) (A) (A) (A) (A)
                 (A) (A) (A) (A) (A) (A) (A) (A) (A) (A) (A) (A)
                 (A) (A) (A) (A) (A) (A) (A) (A) (A) (A) (A) (A)
                 (A) (A) (A) (A) (A) (A) (A) (A) (A) (A) (A) (A)
                 (A) (A) (A) (A) (A) (A) (A)
 The electronic state of the initial guess is 1-A.
 Leave Link  401 at Fri Nov 11 10:15:57 2011, MaxMem=  939524096 cpu:     109.1
 (Enter /pdc/vol/gaussian/G03RevD.01/g03/l601.exe)
 Using densities on the checkpoint file.

 **********************************************************************

            Population analysis using the SCF density.

 **********************************************************************

 Orbital symmetries:
 BldTbl:  Degeneracy threshold= 1.00D-02
       Occupied  (A) (A) (A) (A) (A) (A) (A) (A) (A) (A) (A) (A)
                 (A) (A) (A) (A) (A) (A) (A) (A) (A)
       Virtual   (A) (A) (A) (A) (A) (A) (A) (A) (A) (A) (A) (A)
                 (A) (A) (A) (A) (A) (A) (A) (A) (A) (A) (A) (A)
                 (A) (A) (A) (A) (A) (A) (A) (A) (A) (A) (A) (A)
                 (A) (A) (A) (A) (A) (A) (A) (A) (A) (A) (A) (A)
                 (A) (A) (A) (A) (A) (A) (A) (A) (A) (A) (A) (A)
                 (A) (A) (A) (A) (A) (A) (A) (A) (A) (A) (A) (A)
                 (A) (A) (A) (A) (A) (A) (A) (A) (A) (A) (A) (A)
                 (A) (A) (A) (A) (A) (A) (A) (A) (A) (A) (A) (A)
                 (A) (A) (A) (A) (A) (A) (A) (A) (A) (A) (A) (A)
                 (A) (A) (A) (A) (A) (A) (A) (A) (A) (A) (A) (A)
                 (A) (A) (A) (A) (A) (A) (A) (A) (A) (A) (A) (A)
                 (A) (A) (A) (A) (A) (A) (A) (A) (A) (A) (A) (A)
                 (A) (A) (A) (A) (A) (A) (A) (A) (A) (A) (A) (A)
                 (A) (A) (A) (A) (A) (A) (A) (A) (A) (A) (A) (A)
                 (A) (A) (A) (A) (A) (A) (A) (A) (A) (A) (A) (A)
                 (A) (A) (A) (A) (A) (A) (A) (A) (A) (A) (A) (A)
                 (A) (A) (A) (A) (A) (A) (A) (A) (A) (A) (A) (A)
                 (A) (A) (A) (A) (A) (A) (A) (A) (A) (A) (A) (A)
                 (A) (A) (A) (A) (A) (A) (A) (A) (A) (A) (A) (A)
                 (A) (A) (A) (A) (A) (A) (A) (A) (A) (A) (A) (A)
                 (A) (A) (A) (A) (A) (A) (A) (A) (A) (A) (A) (A)
                 (A) (A) (A) (A) (A) (A) (A) (A) (A) (A) (A) (A)
                 (A) (A) (A) (A) (A) (A) (A) (A) (A) (A) (A) (A)
                 (A) (A) (A) (A) (A) (A) (A) (A) (A) (A) (A) (A)
                 (A) (A) (A) (A) (A) (A) (A) (A) (A) (A) (A) (A)
                 (A) (A) (A) (A) (A) (A) (A) (A) (A) (A) (A) (A)
                 (A) (A) (A) (A) (A) (A) (A) (A) (A) (A) (A) (A)
                 (A) (A) (A) (A) (A) (A) (A) (A) (A) (A) (A) (A)
                 (A) (A) (A) (A) (A) (A) (A) (A) (A) (A) (A) (A)
                 (A) (A) (A) (A) (A) (A) (A) (A) (A) (A) (A) (A)
                 (A) (A) (A) (A) (A) (A) (A) (A) (A) (A) (A) (A)
                 (A) (A) (A) (A) (A) (A) (A) (A) (A) (A) (A) (A)
                 (A) (A) (A) (A) (A) (A) (A) (A) (A) (A) (A) (A)
                 (A) (A) (A) (A) (A) (A) (A) (A) (A) (A) (A) (A)
                 (A) (A) (A) (A) (A) (A) (A) (A) (A) (A) (A) (A)
                 (A) (A) (A) (A) (A) (A) (A) (A) (A) (A) (A) (A)
                 (A) (A) (A) (A) (A) (A) (A)
 The electronic state is 1-A.
 Alpha  occ. eigenvalues --  -18.97994 -10.14367 -10.13937 -10.13858 -10.12886
 Alpha  occ. eigenvalues --   -1.05532  -0.87863  -0.80433  -0.71161  -0.66808
 Alpha  occ. eigenvalues --   -0.58269  -0.56631  -0.53285  -0.51965  -0.50657
 Alpha  occ. eigenvalues --   -0.47170  -0.46289  -0.44893  -0.42482  -0.42464
 Alpha  occ. eigenvalues --   -0.36023
 Alpha virt. eigenvalues --   -0.05420  -0.05228  -0.02936  -0.02667  -0.02181
 Alpha virt. eigenvalues --    0.00573   0.00663   0.01071   0.01601   0.01734
 Alpha virt. eigenvalues --    0.03459   0.03721   0.03727   0.04306   0.04470
 Alpha virt. eigenvalues --    0.04896   0.05669   0.06084   0.06629   0.06800
 Alpha virt. eigenvalues --    0.07060   0.07150   0.07953   0.07982   0.08524
 Alpha virt. eigenvalues --    0.09007   0.09115   0.10292   0.10519   0.11131
 Alpha virt. eigenvalues --    0.11271   0.12087   0.13183   0.13313   0.13910
 Alpha virt. eigenvalues --    0.14872   0.16220   0.16934   0.17818   0.18760
 Alpha virt. eigenvalues --    0.20338   0.21068   0.21515   0.21882   0.21890
 Alpha virt. eigenvalues --    0.22474   0.22867   0.23732   0.24406   0.24640
 Alpha virt. eigenvalues --    0.25020   0.25181   0.25648   0.26279   0.26567
 Alpha virt. eigenvalues --    0.27026   0.27351   0.27756   0.28646   0.30049
 Alpha virt. eigenvalues --    0.30075   0.30291   0.30567   0.31619   0.32107
 Alpha virt. eigenvalues --    0.32321   0.32891   0.32991   0.33500   0.35482
 Alpha virt. eigenvalues --    0.36593   0.37442   0.38171   0.39428   0.40336
 Alpha virt. eigenvalues --    0.40784   0.41286   0.41789   0.42844   0.43244
 Alpha virt. eigenvalues --    0.44021   0.45101   0.46328   0.46599   0.46901
 Alpha virt. eigenvalues --    0.47180   0.47383   0.48468   0.49267   0.50178
 Alpha virt. eigenvalues --    0.50654   0.51108   0.52127   0.52169   0.55133
 Alpha virt. eigenvalues --    0.55594   0.56296   0.56695   0.57614   0.58231
 Alpha virt. eigenvalues --    0.59291   0.59358   0.60996   0.61151   0.63372
 Alpha virt. eigenvalues --    0.64116   0.64458   0.64909   0.66708   0.67578
 Alpha virt. eigenvalues --    0.67842   0.69337   0.69662   0.71556   0.71650
 Alpha virt. eigenvalues --    0.72087   0.72403   0.73403   0.73786   0.74016
 Alpha virt. eigenvalues --    0.75169   0.75313   0.75560   0.76147   0.77404
 Alpha virt. eigenvalues --    0.78911   0.80412   0.81355   0.84092   0.84845
 Alpha virt. eigenvalues --    0.85261   0.85435   0.85716   0.86713   0.87354
 Alpha virt. eigenvalues --    0.88591   0.88621   0.89739   0.90959   0.91675
 Alpha virt. eigenvalues --    0.93100   0.94481   0.95111   0.95750   0.96303
 Alpha virt. eigenvalues --    0.96704   0.96805   0.99608   0.99980   1.00267
 Alpha virt. eigenvalues --    1.02208   1.02696   1.03038   1.03137   1.04059
 Alpha virt. eigenvalues --    1.04466   1.04847   1.05581   1.06440   1.07996
 Alpha virt. eigenvalues --    1.10993   1.11279   1.11486   1.12520   1.13916
 Alpha virt. eigenvalues --    1.15471   1.17494   1.18009   1.19346   1.20053
 Alpha virt. eigenvalues --    1.21987   1.22952   1.23849   1.26118   1.26425
 Alpha virt. eigenvalues --    1.27520   1.28990   1.29345   1.29982   1.31203
 Alpha virt. eigenvalues --    1.32127   1.32424   1.33901   1.34679   1.36135
 Alpha virt. eigenvalues --    1.36194   1.36853   1.37208   1.39040   1.40381
 Alpha virt. eigenvalues --    1.40983   1.41103   1.42088   1.42839   1.43767
 Alpha virt. eigenvalues --    1.43942   1.44244   1.44719   1.45973   1.46060
 Alpha virt. eigenvalues --    1.47096   1.47343   1.48758   1.49012   1.50420
 Alpha virt. eigenvalues --    1.52100   1.52468   1.53253   1.54908   1.57126
 Alpha virt. eigenvalues --    1.57203   1.60548   1.61770   1.61794   1.62686
 Alpha virt. eigenvalues --    1.64611   1.66093   1.66103   1.66818   1.69292
 Alpha virt. eigenvalues --    1.69760   1.71363   1.73420   1.74407   1.75356
 Alpha virt. eigenvalues --    1.77598   1.78124   1.82266   1.82723   1.85049
 Alpha virt. eigenvalues --    1.87304   1.89260   1.90532   1.92045   1.92558
 Alpha virt. eigenvalues --    1.94308   1.94451   1.95618   1.97886   1.99495
 Alpha virt. eigenvalues --    2.00180   2.02644   2.02816   2.06770   2.07405
 Alpha virt. eigenvalues --    2.08820   2.09486   2.10740   2.12986   2.16380
 Alpha virt. eigenvalues --    2.19186   2.19665   2.21125   2.21595   2.28242
 Alpha virt. eigenvalues --    2.31820   2.34413   2.35672   2.38851   2.40593
 Alpha virt. eigenvalues --    2.48404   2.50229   2.55275   2.55298   2.58287
 Alpha virt. eigenvalues --    2.62702   2.67954   2.69656   2.70141   2.75254
 Alpha virt. eigenvalues --    2.81350   2.87499   2.90878   2.91986   2.93445
 Alpha virt. eigenvalues --    2.93717   2.97715   2.98117   3.00232   3.01145
 Alpha virt. eigenvalues --    3.01879   3.06829   3.08624   3.10917   3.14300
 Alpha virt. eigenvalues --    3.15880   3.17017   3.17345   3.18343   3.20446
 Alpha virt. eigenvalues --    3.21738   3.21876   3.24700   3.25385   3.26206
 Alpha virt. eigenvalues --    3.30785   3.32879   3.33862   3.34623   3.36205
 Alpha virt. eigenvalues --    3.36330   3.37709   3.38561   3.40205   3.42557
 Alpha virt. eigenvalues --    3.43745   3.44031   3.45483   3.46616   3.47594
 Alpha virt. eigenvalues --    3.49613   3.52389   3.52820   3.55866   3.57845
 Alpha virt. eigenvalues --    3.60901   3.62138   3.65322   3.65851   3.69396
 Alpha virt. eigenvalues --    3.70008   3.70994   3.74121   3.74555   3.74718
 Alpha virt. eigenvalues --    3.75958   3.80008   3.80674   3.82839   3.84845
 Alpha virt. eigenvalues --    3.85912   3.88677   3.89537   3.93717   3.95269
 Alpha virt. eigenvalues --    4.00896   4.02246   4.03211   4.04638   4.05925
 Alpha virt. eigenvalues --    4.10084   4.10405   4.13750   4.17562   4.19384
 Alpha virt. eigenvalues --    4.19564   4.21361   4.22647   4.23355   4.25781
 Alpha virt. eigenvalues --    4.26276   4.29207   4.31798   4.32089   4.34369
 Alpha virt. eigenvalues --    4.36471   4.39236   4.42092   4.45502   4.45923
 Alpha virt. eigenvalues --    4.47797   4.48668   4.51854   4.53469   4.56037
 Alpha virt. eigenvalues --    4.57220   4.58281   4.63712   4.65386   4.66191
 Alpha virt. eigenvalues --    4.68948   4.69598   4.72393   4.72807   4.75188
 Alpha virt. eigenvalues --    4.75809   4.77525   4.83889   4.85469   4.87655
 Alpha virt. eigenvalues --    4.89141   4.89938   4.92629   4.92741   4.93931
 Alpha virt. eigenvalues --    4.94739   4.98135   4.99626   5.02889   5.08349
 Alpha virt. eigenvalues --    5.08903   5.10203   5.10690   5.13735   5.14479
 Alpha virt. eigenvalues --    5.16792   5.17366   5.22062   5.27862   5.28405
 Alpha virt. eigenvalues --    5.38829   5.38841   5.42839   5.46147   5.49341
 Alpha virt. eigenvalues --    5.55493   5.56206   5.60007   5.60717   5.62170
 Alpha virt. eigenvalues --    5.66920   5.69472   5.71253   5.76397   5.86959
 Alpha virt. eigenvalues --    5.92352   6.06905   6.11119   6.14874   6.21201
 Alpha virt. eigenvalues --    6.22444   6.23308   6.23896   6.37985   6.42320
 Alpha virt. eigenvalues --    6.58260   6.66793   6.73990   6.81209   6.83167
 Alpha virt. eigenvalues --    7.03124   7.16786   7.46881   7.81915  14.70676
 Alpha virt. eigenvalues --   16.44192  16.68360  16.87445  17.65984
 Entering OneElI...
 OneElI was handed939132803 working-precision words.
 Multipole integrals L=0 to 4 MinM= 0 MaxM= 0.
 Requested accuracy = 0.1000D-12
 PrsmSu:  NPrtUS=   1 ThrOK=F
 PRISM was handed   938284913 working-precision words and 12629 shell-pairs
 Electronic moments (au):
   -42.00000000    -0.02061284     0.61222425     0.00054216
  -545.01702845   -78.97463657   -47.06384286     2.98272405
     0.00390983     0.00019041   163.18255639   -22.12002181
    -0.00213979    22.04016814   160.42899973    -0.01146540
    28.28145731    -4.23297907     0.00019490    -0.01699612
-12997.99264481  -452.32626905  -232.26036526    15.15054605
     0.10895781   -35.41177506     0.00759923     0.00018943
     0.00908670  -870.39710006  -552.75904417  -161.78891799
    -0.02244379     0.00625918   -45.43449981
 Electronic spatial extent (au):  <R**2>=   671.0555
 Nuclear    moments (au):
    42.00000000     0.00000000     0.00000000     0.00000000
   521.68979709    53.07697615    22.09010014     0.00000000
     0.00000000     0.00000000  -118.10357064    20.98583757
     0.00207253   -19.74338776  -144.26934330     0.03533153
   -24.89146828     3.99123192    -0.00024882     0.01821017
 11329.32176254   150.05456332    61.00230430    35.73187570
     0.05550469    31.23421836    -0.00464455     0.00599682
    -0.00801045   489.54044841   195.96582040    89.25563774
     0.02643445    -0.00716070    49.05746393
 Total      moments (au):
     0.00000000    -0.02061284     0.61222425     0.00054216
   -23.32723136   -25.89766042   -24.97374272     2.98272405
     0.00390983     0.00019041    45.07898574    -1.13418423
    -0.00006726     2.29678039    16.15965642     0.02386613
     3.38998903    -0.24174716    -0.00005392     0.00121405
 -1668.67088227  -302.27170573  -171.25806095    50.88242175
     0.16446250    -4.17755670     0.00295468     0.00618625
     0.00107625  -380.85665165  -356.79322376   -72.53328025
     0.00399066    -0.00090152     3.62296412
 Charge=     0.0000 electrons
 Dipole moment (field-independent basis, Debye):
    X=    -0.0524    Y=     1.5561    Z=     0.0014  Tot=     1.5570
 Quadrupole moment (field-independent basis, Debye-Ang):
   XX=   -31.3759   YY=   -34.8332   ZZ=   -33.5905
   XY=     4.0119   XZ=     0.0053   YZ=     0.0003
 Traceless Quadrupole moment (field-independent basis, Debye-Ang):
   XX=     1.8906   YY=    -1.5667   ZZ=    -0.3240
   XY=     4.0119   XZ=     0.0053   YZ=     0.0003
 Octapole moment (field-independent basis, Debye-Ang**2):
  XXX=    32.0855  YYY=    -0.8073  ZZZ=     0.0000  XYY=     1.6348
  XXY=    11.5018  XXZ=     0.0170  XZZ=     2.4129  YZZ=    -0.1721
  YYZ=     0.0000  XYZ=     0.0009
 Hexadecapole moment (field-independent basis, Debye-Ang**3):
 XXXX=  -628.5014 YYYY=  -113.8500 ZZZZ=   -64.5040 XXXY=    19.1648
 XXXZ=     0.0619 YYYX=    -1.5735 YYYZ=     0.0011 ZZZX=     0.0023
 ZZZY=     0.0004 XXYY=  -143.4489 XXZZ=  -134.3854 YYZZ=   -27.3195
 XXYZ=     0.0015 YYXZ=    -0.0003 ZZXY=     1.3646
 N-N= 1.848411847699D+02 E-N=-9.138309515933D+02  KE= 2.322298122925D+02
 Entering OneElI...
 OneElI was handed938644743 working-precision words.
 Calculate electrostatic properties
    NBasis =   460  MinDer = 0  MaxDer = 0
    NGrid  =    15  NMatD  =   1
 Requested accuracy = 0.1000D-12
 PrsmSu:  NPrtUS=   8 ThrOK=T
 PRISM was handed   117039967 working-precision words and 12428 shell-pairs
 PRISM was handed   117039967 working-precision words and 12428 shell-pairs
 PRISM was handed   117039967 working-precision words and 12428 shell-pairs
 PRISM was handed   117039967 working-precision words and 12428 shell-pairs
 PRISM was handed   117039967 working-precision words and 12428 shell-pairs
 PRISM was handed   117039967 working-precision words and 12428 shell-pairs
 PRISM was handed   117039967 working-precision words and 12428 shell-pairs
 PRISM was handed   117039967 working-precision words and 12428 shell-pairs
 --------------------------------------------------------
       Center         ----      EFG at Nuclei      ----
                      3XX-RR        3YY-RR        3ZZ-RR
 --------------------------------------------------------
     1   Atom       -0.022558     -0.002025      0.024583
     2   Atom       -0.137583     -0.009392      0.146974
     3   Atom        0.139863     -0.002924     -0.136939
     4   Atom        0.139865     -0.002905     -0.136959
     5   Atom       -0.035967     -0.010587      0.046554
     6   Atom        0.136636     -0.007913     -0.128723
     7   Atom        0.136635     -0.007838     -0.128797
     8   Atom       -0.028023     -0.027095      0.055117
     9   Atom        0.137495     -0.005573     -0.131923
    10   Atom        0.137416     -0.005576     -0.131840
    11   Atom       -0.152500     -0.044464      0.196964
    12   Atom        0.129321     -0.001243     -0.128078
    13   Atom        0.129325     -0.001319     -0.128005
    14   Atom       -1.694937     -0.160615      1.855553
    15   Atom       -0.294108      0.025447      0.268661
 --------------------------------------------------------
                        XY            XZ            YZ
 --------------------------------------------------------
     1   Atom       -0.035419      0.000006      0.000016
     2   Atom        0.204249     -0.000010      0.000009
     3   Atom       -0.014399     -0.015110     -0.204011
     4   Atom       -0.014366      0.015066      0.204008
     5   Atom        0.000826      0.000009      0.000008
     6   Atom       -0.002345     -0.003513     -0.202244
     7   Atom       -0.002360      0.003536      0.202221
     8   Atom       -0.010076     -0.000002      0.000070
     9   Atom       -0.001549     -0.000312     -0.200878
    10   Atom       -0.001572      0.000342      0.200767
    11   Atom        0.280177      0.000043     -0.000051
    12   Atom       -0.002247     -0.014001     -0.195050
    13   Atom       -0.002250      0.013997      0.195072
    14   Atom        0.218019     -0.001600     -0.001543
    15   Atom       -0.303467     -0.000543     -0.000362
 --------------------------------------------------------


 ---------------------------------------------------------------------------------
              Nuclear Quadrupole in Principal Axis System
 ---------------------------------------------------------------------------------

       Atom             a.u.   MegaHertz   Gauss  10(-4) cm-1        Axes

              Baa    -0.0492    -6.598    -2.354    -2.201  0.7995  0.6007 -0.0002
     1 C(13)  Bbb     0.0246     3.298     1.177     1.100  0.3898 -0.5186  0.7610
              Bcc     0.0246     3.300     1.178     1.101 -0.4570  0.6085  0.6488
 
              Baa    -0.2876  -153.427   -54.746   -51.178  0.8060 -0.5919  0.0000
     2 H(1)   Bbb     0.1406    75.008    26.765    25.020  0.5919  0.8060 -0.0003
              Bcc     0.1470    78.418    27.982    26.158  0.0002  0.0003  1.0000
 
              Baa    -0.2857  -152.420   -54.387   -50.842  0.0486  0.5861  0.8088
     3 H(1)   Bbb     0.1394    74.386    26.543    24.812  0.8864  0.3480 -0.3053
              Bcc     0.1463    78.035    27.845    26.030 -0.4604  0.7318 -0.5026
 
              Baa    -0.2857  -152.419   -54.387   -50.842 -0.0484 -0.5860  0.8088
     4 H(1)   Bbb     0.1394    74.384    26.542    24.812  0.8866  0.3478  0.3051
              Bcc     0.1463    78.035    27.845    26.030 -0.4601  0.7319  0.5027
 
              Baa    -0.0360    -4.830    -1.723    -1.611  0.9995 -0.0325 -0.0001
     5 C(13)  Bbb    -0.0106    -1.417    -0.506    -0.473  0.0325  0.9995 -0.0002
              Bcc     0.0466     6.247     2.229     2.084  0.0001  0.0002  1.0000
 
              Baa    -0.2794  -149.092   -53.200   -49.732  0.0101  0.5974  0.8019
     6 H(1)   Bbb     0.1367    72.921    26.020    24.324  0.9993 -0.0348  0.0133
              Bcc     0.1428    76.171    27.180    25.408  0.0358  0.8012 -0.5973
 
              Baa    -0.2794  -149.092   -53.200   -49.732 -0.0102 -0.5972  0.8020
     7 H(1)   Bbb     0.1367    72.921    26.020    24.324  0.9993 -0.0349 -0.0133
              Bcc     0.1428    76.171    27.180    25.408  0.0360  0.8013  0.5972
 
              Baa    -0.0376    -5.052    -1.803    -1.685  0.7232  0.6906 -0.0005
     8 C(13)  Bbb    -0.0175    -2.345    -0.837    -0.782 -0.6906  0.7232 -0.0007
              Bcc     0.0551     7.396     2.639     2.467 -0.0001  0.0009  1.0000
 
              Baa    -0.2793  -149.037   -53.180   -49.713  0.0028  0.5916  0.8062
     9 H(1)   Bbb     0.1373    73.231    26.131    24.427  0.9740  0.1809 -0.1361
              Bcc     0.1421    75.806    27.049    25.286 -0.2264  0.7857 -0.5757
 
              Baa    -0.2792  -148.952   -53.150   -49.685 -0.0029 -0.5916  0.8062
    10 H(1)   Bbb     0.1372    73.188    26.115    24.413  0.9740  0.1810  0.1363
              Bcc     0.1420    75.764    27.034    25.272 -0.2266  0.7856  0.5757
 
              Baa    -0.3838   -51.505   -18.378   -17.180  0.7711 -0.6367 -0.0001
    11 C(13)  Bbb     0.1869    25.074     8.947     8.364  0.6367  0.7711  0.0012
              Bcc     0.1970    26.431     9.431     8.816 -0.0007 -0.0010  1.0000
 
              Baa    -0.2702  -144.145   -51.435   -48.082  0.0317  0.5870  0.8090
    12 H(1)   Bbb     0.1267    67.616    24.127    22.554  0.9055 -0.3595  0.2254
              Bcc     0.1434    76.529    27.308    25.527  0.4231  0.7254 -0.5429
 
              Baa    -0.2702  -144.145   -51.435   -48.082 -0.0316 -0.5872  0.8088
    13 H(1)   Bbb     0.1267    67.618    24.128    22.555  0.9055 -0.3595 -0.2255
              Bcc     0.1434    76.527    27.307    25.527  0.4232  0.7253  0.5430
 
              Baa    -1.7253   124.843    44.547    41.643  0.9904 -0.1380  0.0004
    14 O(17)  Bbb    -0.1302     9.424     3.363     3.144  0.1380  0.9904  0.0009
              Bcc     1.8556  -134.267   -47.910   -44.787 -0.0005 -0.0008  1.0000
 
              Baa    -0.4773  -254.660   -90.869   -84.945  0.8561  0.5168  0.0009
    15 H(1)   Bbb     0.2086   111.315    39.720    37.131 -0.5168  0.8561  0.0005
              Bcc     0.2687   143.345    51.149    47.815 -0.0005 -0.0009  1.0000
 

 ---------------------------------------------------------------------------------

 No NMR shielding tensors so no spin-rotation constants.
 Leave Link  601 at Fri Nov 11 10:16:04 2011, MaxMem=  939524096 cpu:       4.5
 (Enter /pdc/vol/gaussian/G03RevD.01/g03/l602.exe)
 Merz-Kollman atomic radii used.
 Read replacement radii for each type of atom:
 Rad(19) =   2.800000000000D+00
 Rad(20) =   2.400000000000D+00
 Rad(31) =   2.100000000000D+00
 Rad(32) =   2.100000000000D+00
 Rad(33) =   2.050000000000D+00
 Rad(34) =   1.900000000000D+00
 Rad(37) =   2.900000000000D+00
 Rad(40) =   2.300000000000D+00
 Rad(39) =   2.400000000000D+00
 Rad(47) =   2.100000000000D+00
 Rad(29) =   2.000000000000D+00
 Rad(30) =   2.100000000000D+00
 Rad(24) =   2.050000000000D+00
 Rad(55) =   3.000000000000D+00
 Rad(56) =   2.700000000000D+00
 Rad(57) =   2.500000000000D+00
 Rad(52) =   2.100000000000D+00
 Rad(80) =   2.050000000000D+00
 Rad(22) =   2.150000000000D+00
 Rad(23) =   2.050000000000D+00
 Rad(25) =   2.050000000000D+00
 Rad(28) =   2.000000000000D+00
 Rad(30) =   2.100000000000D+00
 Rad(21) =   2.300000000000D+00
 Rad(51) =   2.200000000000D+00
 Rad(82) =   2.300000000000D+00
 Rad(50) =   2.250000000000D+00
 Rad(49) =   2.200000000000D+00
 Rad(26) =   2.050000000000D+00
 Rad(38) =   2.550000000000D+00
 Rad(81) =   2.400000000000D+00
 Rad(53) =   2.100000000000D+00
 Rad(2) =   1.400000000000D+00
 Rad(10) =   1.540000000000D+00
 Rad(18) =   1.880000000000D+00
 Rad(36) =   2.020000000000D+00
 Atom Element Radius
    1     6    1.50
    2     1    1.20
    3     1    1.20
    4     1    1.20
    5     6    1.50
    6     1    1.20
    7     1    1.20
    8     6    1.50
    9     1    1.20
   10     1    1.20
   11     6    1.50
   12     1    1.20
   13     1    1.20
   14     8    1.40
   15     1    1.20
 Generate VDW surfaces: Layer= 4 Dens= 6 Start= 1.400 Inc= 0.200

 **********************************************************************

            Electrostatic Properties Using The SCF Density

 **********************************************************************

       Atomic Center    1 is at  -2.515503 -0.294576  0.000073
       Atomic Center    2 is at  -3.397306  0.347505  0.000025
       Atomic Center    3 is at  -2.572554 -0.937172 -0.880623
       Atomic Center    4 is at  -2.572408 -0.937148  0.880796
       Atomic Center    5 is at  -1.227399  0.526983 -0.000087
       Atomic Center    6 is at  -1.216875  1.184466  0.874362
       Atomic Center    7 is at  -1.216776  1.184307 -0.874654
       Atomic Center    8 is at   0.032167 -0.339989 -0.000025
       Atomic Center    9 is at   0.035726 -0.993381 -0.876468
       Atomic Center   10 is at   0.035625 -0.993464  0.876481
       Atomic Center   11 is at   1.311529  0.476309  0.000060
       Atomic Center   12 is at   1.344172  1.121940  0.885728
       Atomic Center   13 is at   1.344192  1.122093 -0.885495
       Atomic Center   14 is at   2.421672 -0.424275 -0.000124
       Atomic Center   15 is at   3.238066  0.082698  0.000720
      ESP Fit Center   16 is at  -2.515503  0.509059  1.940220
      ESP Fit Center   17 is at  -2.917321  0.401392  1.940220
      ESP Fit Center   18 is at  -2.834785  0.827583  1.746159
      ESP Fit Center   19 is at  -3.218596  0.636468  1.746159
      ESP Fit Center   20 is at  -3.507449  0.319611  1.746159
      ESP Fit Center   21 is at  -4.354090 -0.914068  0.803708
      ESP Fit Center   22 is at  -4.480695 -0.911159  0.409763
      ESP Fit Center   23 is at  -4.316350 -1.294128  0.409763
      ESP Fit Center   24 is at  -4.078279 -1.636175  0.409763
      ESP Fit Center   25 is at  -4.455650 -1.098211  0.000073
      ESP Fit Center   26 is at  -4.261589 -1.461274  0.000073
      ESP Fit Center   27 is at  -4.000427 -1.779500  0.000073
      ESP Fit Center   28 is at  -3.682201 -2.040662  0.000073
      ESP Fit Center   29 is at  -3.319138 -2.234723  0.000073
      ESP Fit Center   30 is at  -2.925193 -2.354225  0.000073
      ESP Fit Center   31 is at  -2.515503 -2.394576  0.000073
      ESP Fit Center   32 is at  -2.105814 -2.354225  0.000073
      ESP Fit Center   33 is at  -1.711868 -2.234723  0.000073
      ESP Fit Center   34 is at  -1.348806 -2.040662  0.000073
      ESP Fit Center   35 is at  -4.480695 -0.911159 -0.409617
      ESP Fit Center   36 is at  -4.316350 -1.294128 -0.409617
      ESP Fit Center   37 is at  -4.078279 -1.636175 -0.409617
      ESP Fit Center   38 is at  -4.354090 -0.914068 -0.803562
      ESP Fit Center   39 is at  -2.834785  0.827583 -1.746013
      ESP Fit Center   40 is at  -3.218596  0.636468 -1.746013
      ESP Fit Center   41 is at  -3.507449  0.319611 -1.746013
      ESP Fit Center   42 is at  -2.515503  0.509059 -1.940074
      ESP Fit Center   43 is at  -2.917321  0.401392 -1.940074
      ESP Fit Center   44 is at  -3.614714  0.724066  1.622781
      ESP Fit Center   45 is at  -3.832122  0.347505  1.622781
      ESP Fit Center   46 is at  -3.397306  1.187505  1.454948
      ESP Fit Center   47 is at  -3.817306  1.074966  1.454948
      ESP Fit Center   48 is at  -4.124768  0.767505  1.454948
      ESP Fit Center   49 is at  -4.237306  0.347505  1.454948
      ESP Fit Center   50 is at  -4.124768 -0.072495  1.454948
      ESP Fit Center   51 is at  -2.867796  1.410904  1.187965
      ESP Fit Center   52 is at  -3.287697  1.530376  1.187965
      ESP Fit Center   53 is at  -3.722401  1.490095  1.187965
      ESP Fit Center   54 is at  -4.113200  1.295501  1.187965
      ESP Fit Center   55 is at  -4.407313  0.972874  1.187965
      ESP Fit Center   56 is at  -4.565019  0.565788  1.187965
      ESP Fit Center   57 is at  -4.565019  0.129221  1.187965
      ESP Fit Center   58 is at  -4.407313 -0.277865  1.187965
      ESP Fit Center   59 is at  -2.865763  1.701854  0.840025
      ESP Fit Center   60 is at  -3.288580  1.798359  0.840025
      ESP Fit Center   61 is at  -3.721057  1.765949  0.840025
      ESP Fit Center   62 is at  -4.124768  1.607505  0.840025
      ESP Fit Center   63 is at  -4.463840  1.337103  0.840025
      ESP Fit Center   64 is at  -4.708146  0.978772  0.840025
      ESP Fit Center   65 is at  -4.835979  0.564350  0.840025
      ESP Fit Center   66 is at  -4.835979  0.130660  0.840025
      ESP Fit Center   67 is at  -4.708146 -0.283763  0.840025
      ESP Fit Center   68 is at  -4.463840 -0.642094  0.840025
      ESP Fit Center   69 is at  -2.977306  1.914966  0.434841
      ESP Fit Center   70 is at  -3.397306  1.970260  0.434841
      ESP Fit Center   71 is at  -3.817306  1.914966  0.434841
      ESP Fit Center   72 is at  -4.208684  1.752852  0.434841
      ESP Fit Center   73 is at  -4.544768  1.494966  0.434841
      ESP Fit Center   74 is at  -4.802654  1.158882  0.434841
      ESP Fit Center   75 is at  -4.964768  0.767505  0.434841
      ESP Fit Center   76 is at  -5.020062  0.347505  0.434841
      ESP Fit Center   77 is at  -4.964768 -0.072495  0.434841
      ESP Fit Center   78 is at  -4.802654 -0.463873  0.434841
      ESP Fit Center   79 is at  -4.544768 -0.799957  0.434841
      ESP Fit Center   80 is at  -2.878158  1.945280  0.000025
      ESP Fit Center   81 is at  -3.291818  2.024190  0.000025
      ESP Fit Center   82 is at  -3.712107  1.997747  0.000025
      ESP Fit Center   83 is at  -4.112616  1.867614  0.000025
      ESP Fit Center   84 is at  -4.468179  1.641967  0.000025
      ESP Fit Center   85 is at  -4.756455  1.334984  0.000025
      ESP Fit Center   86 is at  -4.959331  0.965954  0.000025
      ESP Fit Center   87 is at  -5.064059  0.558064  0.000025
      ESP Fit Center   88 is at  -5.064059  0.136945  0.000025
      ESP Fit Center   89 is at  -4.959331 -0.270945  0.000025
      ESP Fit Center   90 is at  -4.756455 -0.639975  0.000025
      ESP Fit Center   91 is at  -2.977306  1.914966 -0.434791
      ESP Fit Center   92 is at  -3.397306  1.970260 -0.434791
      ESP Fit Center   93 is at  -3.817306  1.914966 -0.434791
      ESP Fit Center   94 is at  -4.208684  1.752852 -0.434791
      ESP Fit Center   95 is at  -4.544768  1.494966 -0.434791
      ESP Fit Center   96 is at  -4.802654  1.158882 -0.434791
      ESP Fit Center   97 is at  -4.964768  0.767505 -0.434791
      ESP Fit Center   98 is at  -5.020062  0.347505 -0.434791
      ESP Fit Center   99 is at  -4.964768 -0.072495 -0.434791
      ESP Fit Center  100 is at  -4.802654 -0.463873 -0.434791
      ESP Fit Center  101 is at  -4.544768 -0.799957 -0.434791
      ESP Fit Center  102 is at  -2.865763  1.701854 -0.839975
      ESP Fit Center  103 is at  -3.288580  1.798359 -0.839975
      ESP Fit Center  104 is at  -3.721057  1.765949 -0.839975
      ESP Fit Center  105 is at  -4.124768  1.607505 -0.839975
      ESP Fit Center  106 is at  -4.463840  1.337103 -0.839975
      ESP Fit Center  107 is at  -4.708146  0.978772 -0.839975
      ESP Fit Center  108 is at  -4.835979  0.564350 -0.839975
      ESP Fit Center  109 is at  -4.835979  0.130660 -0.839975
      ESP Fit Center  110 is at  -4.708146 -0.283763 -0.839975
      ESP Fit Center  111 is at  -4.463840 -0.642094 -0.839975
      ESP Fit Center  112 is at  -2.867796  1.410904 -1.187914
      ESP Fit Center  113 is at  -3.287697  1.530376 -1.187914
      ESP Fit Center  114 is at  -3.722401  1.490095 -1.187914
      ESP Fit Center  115 is at  -4.113200  1.295501 -1.187914
      ESP Fit Center  116 is at  -4.407313  0.972874 -1.187914
      ESP Fit Center  117 is at  -4.565019  0.565788 -1.187914
      ESP Fit Center  118 is at  -4.565019  0.129221 -1.187914
      ESP Fit Center  119 is at  -4.407313 -0.277865 -1.187914
      ESP Fit Center  120 is at  -3.397306  1.187505 -1.454897
      ESP Fit Center  121 is at  -3.817306  1.074966 -1.454897
      ESP Fit Center  122 is at  -4.124768  0.767505 -1.454897
      ESP Fit Center  123 is at  -4.237306  0.347505 -1.454897
      ESP Fit Center  124 is at  -4.124768 -0.072495 -1.454897
      ESP Fit Center  125 is at  -3.614714  0.724066 -1.622730
      ESP Fit Center  126 is at  -3.832122  0.347505 -1.622730
      ESP Fit Center  127 is at  -3.977901 -1.748549 -0.445807
      ESP Fit Center  128 is at  -3.720015 -2.084633 -0.445807
      ESP Fit Center  129 is at  -3.383932 -2.342519 -0.445807
      ESP Fit Center  130 is at  -2.992554 -2.504633 -0.445807
      ESP Fit Center  131 is at  -2.572554 -2.559927 -0.445807
      ESP Fit Center  132 is at  -2.152554 -2.504633 -0.445807
      ESP Fit Center  133 is at  -1.761176 -2.342519 -0.445807
      ESP Fit Center  134 is at  -1.425093 -2.084633 -0.445807
      ESP Fit Center  135 is at  -4.239307 -1.147731 -0.880623
      ESP Fit Center  136 is at  -4.134578 -1.555621 -0.880623
      ESP Fit Center  137 is at  -3.931703 -1.924651 -0.880623
      ESP Fit Center  138 is at  -3.643426 -2.231634 -0.880623
      ESP Fit Center  139 is at  -3.287863 -2.457281 -0.880623
      ESP Fit Center  140 is at  -2.887355 -2.587414 -0.880623
      ESP Fit Center  141 is at  -2.467066 -2.613856 -0.880623
      ESP Fit Center  142 is at  -2.053405 -2.534947 -0.880623
      ESP Fit Center  143 is at  -1.672365 -2.355642 -0.880623
      ESP Fit Center  144 is at  -1.347887 -2.087211 -0.880623
      ESP Fit Center  145 is at  -4.140015 -0.517172 -1.315439
      ESP Fit Center  146 is at  -4.195309 -0.937172 -1.315439
      ESP Fit Center  147 is at  -4.140015 -1.357172 -1.315439
      ESP Fit Center  148 is at  -3.977901 -1.748549 -1.315439
      ESP Fit Center  149 is at  -3.720015 -2.084633 -1.315439
      ESP Fit Center  150 is at  -3.383932 -2.342519 -1.315439
      ESP Fit Center  151 is at  -2.992554 -2.504633 -1.315439
      ESP Fit Center  152 is at  -2.572554 -2.559927 -1.315439
      ESP Fit Center  153 is at  -2.152554 -2.504633 -1.315439
      ESP Fit Center  154 is at  -1.761176 -2.342519 -1.315439
      ESP Fit Center  155 is at  -1.425093 -2.084633 -1.315439
      ESP Fit Center  156 is at  -3.883394 -0.305904 -1.720623
      ESP Fit Center  157 is at  -4.011226 -0.720327 -1.720623
      ESP Fit Center  158 is at  -4.011226 -1.154017 -1.720623
      ESP Fit Center  159 is at  -3.883394 -1.568439 -1.720623
      ESP Fit Center  160 is at  -3.639088 -1.926770 -1.720623
      ESP Fit Center  161 is at  -3.300015 -2.197172 -1.720623
      ESP Fit Center  162 is at  -2.896305 -2.355616 -1.720623
      ESP Fit Center  163 is at  -2.463827 -2.388026 -1.720623
      ESP Fit Center  164 is at  -2.041011 -2.291521 -1.720623
      ESP Fit Center  165 is at  -1.665425 -2.074676 -1.720623
      ESP Fit Center  166 is at  -1.370440 -1.756759 -1.720623
      ESP Fit Center  167 is at  -1.384615 -0.937172 -2.068562
      ESP Fit Center  168 is at  -1.464833 -0.508038 -2.068562
      ESP Fit Center  169 is at  -1.694656 -0.136862 -2.068562
      ESP Fit Center  170 is at  -2.043044  0.126228 -2.068562
      ESP Fit Center  171 is at  -2.462945  0.245700 -2.068562
      ESP Fit Center  172 is at  -2.897649  0.205419 -2.068562
      ESP Fit Center  173 is at  -3.288447  0.010825 -2.068562
      ESP Fit Center  174 is at  -3.582560 -0.311802 -2.068562
      ESP Fit Center  175 is at  -3.740266 -0.718888 -2.068562
      ESP Fit Center  176 is at  -3.740266 -1.155455 -2.068562
      ESP Fit Center  177 is at  -3.582560 -1.562541 -2.068562
      ESP Fit Center  178 is at  -3.288447 -1.885168 -2.068562
      ESP Fit Center  179 is at  -2.897649 -2.079762 -2.068562
      ESP Fit Center  180 is at  -2.462945 -2.120043 -2.068562
      ESP Fit Center  181 is at  -2.043044 -2.000571 -2.068562
      ESP Fit Center  182 is at  -1.694656 -1.737481 -2.068562
      ESP Fit Center  183 is at  -1.464833 -1.366305 -2.068562
      ESP Fit Center  184 is at  -1.732554 -0.937172 -2.335546
      ESP Fit Center  185 is at  -1.845093 -0.517172 -2.335546
      ESP Fit Center  186 is at  -2.152554 -0.209710 -2.335546
      ESP Fit Center  187 is at  -2.572554 -0.097172 -2.335546
      ESP Fit Center  188 is at  -2.992554 -0.209710 -2.335546
      ESP Fit Center  189 is at  -3.300015 -0.517172 -2.335546
      ESP Fit Center  190 is at  -3.412554 -0.937172 -2.335546
      ESP Fit Center  191 is at  -3.300015 -1.357172 -2.335546
      ESP Fit Center  192 is at  -2.992554 -1.664633 -2.335546
      ESP Fit Center  193 is at  -2.572554 -1.777172 -2.335546
      ESP Fit Center  194 is at  -2.152554 -1.664633 -2.335546
      ESP Fit Center  195 is at  -1.845093 -1.357172 -2.335546
      ESP Fit Center  196 is at  -2.137738 -0.937172 -2.503378
      ESP Fit Center  197 is at  -2.355146 -0.560610 -2.503378
      ESP Fit Center  198 is at  -2.789962 -0.560610 -2.503378
      ESP Fit Center  199 is at  -3.007370 -0.937172 -2.503378
      ESP Fit Center  200 is at  -2.789962 -1.313733 -2.503378
      ESP Fit Center  201 is at  -2.355146 -1.313733 -2.503378
      ESP Fit Center  202 is at  -2.572554 -0.937172 -2.560623
      ESP Fit Center  203 is at  -2.572408 -0.937148  2.560796
      ESP Fit Center  204 is at  -2.137592 -0.937148  2.503551
      ESP Fit Center  205 is at  -2.355000 -0.560586  2.503551
      ESP Fit Center  206 is at  -2.789816 -0.560586  2.503551
      ESP Fit Center  207 is at  -3.007224 -0.937148  2.503551
      ESP Fit Center  208 is at  -2.789816 -1.313709  2.503551
      ESP Fit Center  209 is at  -2.355000 -1.313709  2.503551
      ESP Fit Center  210 is at  -1.732408 -0.937148  2.335719
      ESP Fit Center  211 is at  -1.844946 -0.517148  2.335719
      ESP Fit Center  212 is at  -2.152408 -0.209686  2.335719
      ESP Fit Center  213 is at  -2.572408 -0.097148  2.335719
      ESP Fit Center  214 is at  -2.992408 -0.209686  2.335719
      ESP Fit Center  215 is at  -3.299869 -0.517148  2.335719
      ESP Fit Center  216 is at  -3.412408 -0.937148  2.335719
      ESP Fit Center  217 is at  -3.299869 -1.357148  2.335719
      ESP Fit Center  218 is at  -2.992408 -1.664609  2.335719
      ESP Fit Center  219 is at  -2.572408 -1.777148  2.335719
      ESP Fit Center  220 is at  -2.152408 -1.664609  2.335719
      ESP Fit Center  221 is at  -1.844946 -1.357148  2.335719
      ESP Fit Center  222 is at  -1.384468 -0.937148  2.068735
      ESP Fit Center  223 is at  -1.464687 -0.508015  2.068735
      ESP Fit Center  224 is at  -1.694510 -0.136838  2.068735
      ESP Fit Center  225 is at  -2.042897  0.126252  2.068735
      ESP Fit Center  226 is at  -2.462798  0.245724  2.068735
      ESP Fit Center  227 is at  -2.897503  0.205443  2.068735
      ESP Fit Center  228 is at  -3.288301  0.010848  2.068735
      ESP Fit Center  229 is at  -3.582414 -0.311778  2.068735
      ESP Fit Center  230 is at  -3.740120 -0.718864  2.068735
      ESP Fit Center  231 is at  -3.740120 -1.155431  2.068735
      ESP Fit Center  232 is at  -3.582414 -1.562517  2.068735
      ESP Fit Center  233 is at  -3.288301 -1.885144  2.068735
      ESP Fit Center  234 is at  -2.897503 -2.079738  2.068735
      ESP Fit Center  235 is at  -2.462798 -2.120020  2.068735
      ESP Fit Center  236 is at  -2.042897 -2.000548  2.068735
      ESP Fit Center  237 is at  -1.694510 -1.737457  2.068735
      ESP Fit Center  238 is at  -1.464687 -1.366281  2.068735
      ESP Fit Center  239 is at  -3.883248 -0.305880  1.720796
      ESP Fit Center  240 is at  -4.011080 -0.720303  1.720796
      ESP Fit Center  241 is at  -4.011080 -1.153993  1.720796
      ESP Fit Center  242 is at  -3.883248 -1.568415  1.720796
      ESP Fit Center  243 is at  -3.638941 -1.926747  1.720796
      ESP Fit Center  244 is at  -3.299869 -2.197148  1.720796
      ESP Fit Center  245 is at  -2.896158 -2.355592  1.720796
      ESP Fit Center  246 is at  -2.463681 -2.388002  1.720796
      ESP Fit Center  247 is at  -2.040865 -2.291497  1.720796
      ESP Fit Center  248 is at  -1.665278 -2.074652  1.720796
      ESP Fit Center  249 is at  -1.370294 -1.756735  1.720796
      ESP Fit Center  250 is at  -4.139869 -0.517148  1.315612
      ESP Fit Center  251 is at  -4.195163 -0.937148  1.315612
      ESP Fit Center  252 is at  -4.139869 -1.357148  1.315612
      ESP Fit Center  253 is at  -3.977755 -1.748525  1.315612
      ESP Fit Center  254 is at  -3.719869 -2.084609  1.315612
      ESP Fit Center  255 is at  -3.383785 -2.342495  1.315612
      ESP Fit Center  256 is at  -2.992408 -2.504609  1.315612
      ESP Fit Center  257 is at  -2.572408 -2.559903  1.315612
      ESP Fit Center  258 is at  -2.152408 -2.504609  1.315612
      ESP Fit Center  259 is at  -1.761030 -2.342495  1.315612
      ESP Fit Center  260 is at  -1.424946 -2.084609  1.315612
      ESP Fit Center  261 is at  -4.239160 -1.147708  0.880796
      ESP Fit Center  262 is at  -4.134432 -1.555597  0.880796
      ESP Fit Center  263 is at  -3.931556 -1.924627  0.880796
      ESP Fit Center  264 is at  -3.643280 -2.231610  0.880796
      ESP Fit Center  265 is at  -3.287717 -2.457257  0.880796
      ESP Fit Center  266 is at  -2.887208 -2.587390  0.880796
      ESP Fit Center  267 is at  -2.466919 -2.613833  0.880796
      ESP Fit Center  268 is at  -2.053259 -2.534923  0.880796
      ESP Fit Center  269 is at  -1.672219 -2.355619  0.880796
      ESP Fit Center  270 is at  -1.347740 -2.087187  0.880796
      ESP Fit Center  271 is at  -3.977755 -1.748525  0.445980
      ESP Fit Center  272 is at  -3.719869 -2.084609  0.445980
      ESP Fit Center  273 is at  -3.383785 -2.342495  0.445980
      ESP Fit Center  274 is at  -2.992408 -2.504609  0.445980
      ESP Fit Center  275 is at  -2.572408 -2.559903  0.445980
      ESP Fit Center  276 is at  -2.152408 -2.504609  0.445980
      ESP Fit Center  277 is at  -1.761030 -2.342495  0.445980
      ESP Fit Center  278 is at  -1.424946 -2.084609  0.445980
      ESP Fit Center  279 is at  -1.227399 -0.276652  1.940060
      ESP Fit Center  280 is at  -2.790174  1.868582  0.409603
      ESP Fit Center  281 is at  -0.060701  2.273070 -0.000087
      ESP Fit Center  282 is at  -0.423764  2.467130 -0.000087
      ESP Fit Center  283 is at  -0.817709  2.586632 -0.000087
      ESP Fit Center  284 is at  -1.227399  2.626983 -0.000087
      ESP Fit Center  285 is at  -1.637089  2.586632 -0.000087
      ESP Fit Center  286 is at  -2.031034  2.467130 -0.000087
      ESP Fit Center  287 is at  -2.394096  2.273070 -0.000087
      ESP Fit Center  288 is at  -2.712323  2.011908 -0.000087
      ESP Fit Center  289 is at  -2.790174  1.868582 -0.409777
      ESP Fit Center  290 is at  -1.227399 -0.276652 -1.940234
      ESP Fit Center  291 is at  -1.216875  1.184466  2.554362
      ESP Fit Center  292 is at  -0.782059  1.184466  2.497117
      ESP Fit Center  293 is at  -0.999467  1.561028  2.497117
      ESP Fit Center  294 is at  -1.434283  1.561028  2.497117
      ESP Fit Center  295 is at  -1.651691  1.184466  2.497117
      ESP Fit Center  296 is at  -1.434283  0.807905  2.497117
      ESP Fit Center  297 is at  -0.999467  0.807905  2.497117
      ESP Fit Center  298 is at  -0.376875  1.184466  2.329284
      ESP Fit Center  299 is at  -0.489413  1.604466  2.329284
      ESP Fit Center  300 is at  -0.796875  1.911928  2.329284
      ESP Fit Center  301 is at  -1.216875  2.024466  2.329284
      ESP Fit Center  302 is at  -1.636875  1.911928  2.329284
      ESP Fit Center  303 is at  -1.944336  1.604466  2.329284
      ESP Fit Center  304 is at  -2.056875  1.184466  2.329284
      ESP Fit Center  305 is at  -1.944336  0.764466  2.329284
      ESP Fit Center  306 is at  -1.636875  0.457005  2.329284
      ESP Fit Center  307 is at  -1.216875  0.344466  2.329284
      ESP Fit Center  308 is at  -0.796875  0.457005  2.329284
      ESP Fit Center  309 is at  -0.489413  0.764466  2.329284
      ESP Fit Center  310 is at  -0.028935  1.184466  2.062301
      ESP Fit Center  311 is at  -0.109154  1.613600  2.062301
      ESP Fit Center  312 is at  -0.338977  1.984776  2.062301
      ESP Fit Center  313 is at  -0.687365  2.247866  2.062301
      ESP Fit Center  314 is at  -1.107265  2.367338  2.062301
      ESP Fit Center  315 is at  -1.541970  2.327057  2.062301
      ESP Fit Center  316 is at  -1.932768  2.132462  2.062301
      ESP Fit Center  317 is at  -2.226881  1.809836  2.062301
      ESP Fit Center  318 is at  -2.384587  1.402750  2.062301
      ESP Fit Center  319 is at  -2.384587  0.966183  2.062301
      ESP Fit Center  320 is at  -2.226881  0.559097  2.062301
      ESP Fit Center  321 is at  -1.932768  0.236470  2.062301
      ESP Fit Center  322 is at  -1.541970  0.041876  2.062301
      ESP Fit Center  323 is at  -1.107265  0.001595  2.062301
      ESP Fit Center  324 is at  -0.687365  0.121067  2.062301
      ESP Fit Center  325 is at  -0.338977  0.384157  2.062301
      ESP Fit Center  326 is at  -0.109154  0.755333  2.062301
      ESP Fit Center  327 is at  -0.014761  2.004054  1.714362
      ESP Fit Center  328 is at  -0.309745  2.321971  1.714362
      ESP Fit Center  329 is at  -0.685332  2.538816  1.714362
      ESP Fit Center  330 is at  -1.108148  2.635321  1.714362
      ESP Fit Center  331 is at  -1.540625  2.602911  1.714362
      ESP Fit Center  332 is at  -1.944336  2.444466  1.714362
      ESP Fit Center  333 is at  -2.283409  2.174065  1.714362
      ESP Fit Center  334 is at  -2.527715  1.815734  1.714362
      ESP Fit Center  335 is at  -2.655547  1.401311  1.714362
      ESP Fit Center  336 is at  -2.655547  0.967621  1.714362
      ESP Fit Center  337 is at  -0.069413  2.331928  1.309178
      ESP Fit Center  338 is at  -0.405497  2.589814  1.309178
      ESP Fit Center  339 is at  -0.796875  2.751928  1.309178
      ESP Fit Center  340 is at  -1.216875  2.807222  1.309178
      ESP Fit Center  341 is at  -1.636875  2.751928  1.309178
      ESP Fit Center  342 is at  -2.028252  2.589814  1.309178
      ESP Fit Center  343 is at  -2.364336  2.331928  1.309178
      ESP Fit Center  344 is at  -2.622222  1.995844  1.309178
      ESP Fit Center  345 is at  -2.784336  1.604466  1.309178
      ESP Fit Center  346 is at   0.007793  2.334506  0.874362
      ESP Fit Center  347 is at  -0.316686  2.602937  0.874362
      ESP Fit Center  348 is at  -0.697726  2.782241  0.874362
      ESP Fit Center  349 is at  -1.111387  2.861151  0.874362
      ESP Fit Center  350 is at  -1.531675  2.834709  0.874362
      ESP Fit Center  351 is at  -1.932184  2.704576  0.874362
      ESP Fit Center  352 is at  -2.287747  2.478929  0.874362
      ESP Fit Center  353 is at  -2.576023  2.171946  0.874362
      ESP Fit Center  354 is at  -2.778899  1.802916  0.874362
      ESP Fit Center  355 is at  -0.069413  2.331928  0.439546
      ESP Fit Center  356 is at  -0.405497  2.589814  0.439546
      ESP Fit Center  357 is at  -0.796875  2.751928  0.439546
      ESP Fit Center  358 is at  -1.216875  2.807222  0.439546
      ESP Fit Center  359 is at  -1.636875  2.751928  0.439546
      ESP Fit Center  360 is at  -2.028252  2.589814  0.439546
      ESP Fit Center  361 is at  -2.364336  2.331928  0.439546
      ESP Fit Center  362 is at  -1.108148  2.635321  0.034362
      ESP Fit Center  363 is at  -1.108050  2.635161 -0.034654
      ESP Fit Center  364 is at  -0.069315  2.331768 -0.439838
      ESP Fit Center  365 is at  -0.405399  2.589654 -0.439838
      ESP Fit Center  366 is at  -0.796776  2.751768 -0.439838
      ESP Fit Center  367 is at  -1.216776  2.807062 -0.439838
      ESP Fit Center  368 is at  -1.636776  2.751768 -0.439838
      ESP Fit Center  369 is at  -2.028154  2.589654 -0.439838
      ESP Fit Center  370 is at  -2.364238  2.331768 -0.439838
      ESP Fit Center  371 is at   0.007891  2.334346 -0.874654
      ESP Fit Center  372 is at  -0.316587  2.602777 -0.874654
      ESP Fit Center  373 is at  -0.697628  2.782081 -0.874654
      ESP Fit Center  374 is at  -1.111288  2.860991 -0.874654
      ESP Fit Center  375 is at  -1.531577  2.834549 -0.874654
      ESP Fit Center  376 is at  -1.932085  2.704416 -0.874654
      ESP Fit Center  377 is at  -2.287649  2.478769 -0.874654
      ESP Fit Center  378 is at  -2.575925  2.171786 -0.874654
      ESP Fit Center  379 is at  -2.778801  1.802756 -0.874654
      ESP Fit Center  380 is at  -0.069315  2.331768 -1.309470
      ESP Fit Center  381 is at  -0.405399  2.589654 -1.309470
      ESP Fit Center  382 is at  -0.796776  2.751768 -1.309470
      ESP Fit Center  383 is at  -1.216776  2.807062 -1.309470
      ESP Fit Center  384 is at  -1.636776  2.751768 -1.309470
      ESP Fit Center  385 is at  -2.028154  2.589654 -1.309470
      ESP Fit Center  386 is at  -2.364238  2.331768 -1.309470
      ESP Fit Center  387 is at  -2.622124  1.995684 -1.309470
      ESP Fit Center  388 is at  -2.784238  1.604307 -1.309470
      ESP Fit Center  389 is at  -0.014663  2.003894 -1.714654
      ESP Fit Center  390 is at  -0.309647  2.321811 -1.714654
      ESP Fit Center  391 is at  -0.685233  2.538656 -1.714654
      ESP Fit Center  392 is at  -1.108050  2.635161 -1.714654
      ESP Fit Center  393 is at  -1.540527  2.602751 -1.714654
      ESP Fit Center  394 is at  -1.944238  2.444307 -1.714654
      ESP Fit Center  395 is at  -2.283310  2.173905 -1.714654
      ESP Fit Center  396 is at  -2.527616  1.815574 -1.714654
      ESP Fit Center  397 is at  -2.655449  1.401152 -1.714654
      ESP Fit Center  398 is at  -2.655449  0.967462 -1.714654
      ESP Fit Center  399 is at  -0.028837  1.184307 -2.062594
      ESP Fit Center  400 is at  -0.109056  1.613440 -2.062594
      ESP Fit Center  401 is at  -0.338878  1.984616 -2.062594
      ESP Fit Center  402 is at  -0.687266  2.247706 -2.062594
      ESP Fit Center  403 is at  -1.107167  2.367178 -2.062594
      ESP Fit Center  404 is at  -1.541871  2.326897 -2.062594
      ESP Fit Center  405 is at  -1.932670  2.132303 -2.062594
      ESP Fit Center  406 is at  -2.226783  1.809676 -2.062594
      ESP Fit Center  407 is at  -2.384489  1.402590 -2.062594
      ESP Fit Center  408 is at  -2.384489  0.966023 -2.062594
      ESP Fit Center  409 is at  -2.226783  0.558937 -2.062594
      ESP Fit Center  410 is at  -1.932670  0.236310 -2.062594
      ESP Fit Center  411 is at  -1.541871  0.041716 -2.062594
      ESP Fit Center  412 is at  -1.107167  0.001435 -2.062594
      ESP Fit Center  413 is at  -0.687266  0.120907 -2.062594
      ESP Fit Center  414 is at  -0.338878  0.383997 -2.062594
      ESP Fit Center  415 is at  -0.109056  0.755173 -2.062594
      ESP Fit Center  416 is at  -0.376776  1.184307 -2.329577
      ESP Fit Center  417 is at  -0.489315  1.604307 -2.329577
      ESP Fit Center  418 is at  -0.796776  1.911768 -2.329577
      ESP Fit Center  419 is at  -1.216776  2.024307 -2.329577
      ESP Fit Center  420 is at  -1.636776  1.911768 -2.329577
      ESP Fit Center  421 is at  -1.944238  1.604307 -2.329577
      ESP Fit Center  422 is at  -2.056776  1.184307 -2.329577
      ESP Fit Center  423 is at  -1.944238  0.764307 -2.329577
      ESP Fit Center  424 is at  -1.636776  0.456845 -2.329577
      ESP Fit Center  425 is at  -1.216776  0.344307 -2.329577
      ESP Fit Center  426 is at  -0.796776  0.456845 -2.329577
      ESP Fit Center  427 is at  -0.489315  0.764307 -2.329577
      ESP Fit Center  428 is at  -0.781960  1.184307 -2.497410
      ESP Fit Center  429 is at  -0.999368  1.560868 -2.497410
      ESP Fit Center  430 is at  -1.434184  1.560868 -2.497410
      ESP Fit Center  431 is at  -1.651592  1.184307 -2.497410
      ESP Fit Center  432 is at  -1.434184  0.807745 -2.497410
      ESP Fit Center  433 is at  -0.999368  0.807745 -2.497410
      ESP Fit Center  434 is at  -1.216776  1.184307 -2.554654
      ESP Fit Center  435 is at   0.032167  0.463646  1.940122
      ESP Fit Center  436 is at  -1.134531 -2.086076 -0.000025
      ESP Fit Center  437 is at  -0.771469 -2.280136 -0.000025
      ESP Fit Center  438 is at  -0.377523 -2.399638 -0.000025
      ESP Fit Center  439 is at   0.032167 -2.439989 -0.000025
      ESP Fit Center  440 is at   0.441856 -2.399638 -0.000025
      ESP Fit Center  441 is at   0.835802 -2.280136 -0.000025
      ESP Fit Center  442 is at   1.198864 -2.086076 -0.000025
      ESP Fit Center  443 is at   0.032167  0.463646 -1.940172
      ESP Fit Center  444 is at   0.144453 -2.444236 -0.036468
      ESP Fit Center  445 is at  -1.111735 -2.140843 -0.441652
      ESP Fit Center  446 is at  -0.775651 -2.398729 -0.441652
      ESP Fit Center  447 is at  -0.384274 -2.560843 -0.441652
      ESP Fit Center  448 is at   0.035726 -2.616137 -0.441652
      ESP Fit Center  449 is at   0.455726 -2.560843 -0.441652
      ESP Fit Center  450 is at   0.847104 -2.398729 -0.441652
      ESP Fit Center  451 is at   1.183188 -2.140843 -0.441652
      ESP Fit Center  452 is at  -1.035146 -2.287843 -0.876468
      ESP Fit Center  453 is at  -0.679583 -2.513491 -0.876468
      ESP Fit Center  454 is at  -0.279074 -2.643624 -0.876468
      ESP Fit Center  455 is at   0.141214 -2.670066 -0.876468
      ESP Fit Center  456 is at   0.554875 -2.591156 -0.876468
      ESP Fit Center  457 is at   0.935915 -2.411852 -0.876468
      ESP Fit Center  458 is at   1.260394 -2.143420 -0.876468
      ESP Fit Center  459 is at  -1.111735 -2.140843 -1.311284
      ESP Fit Center  460 is at  -0.775651 -2.398729 -1.311284
      ESP Fit Center  461 is at  -0.384274 -2.560843 -1.311284
      ESP Fit Center  462 is at   0.035726 -2.616137 -1.311284
      ESP Fit Center  463 is at   0.455726 -2.560843 -1.311284
      ESP Fit Center  464 is at   0.847104 -2.398729 -1.311284
      ESP Fit Center  465 is at   1.183188 -2.140843 -1.311284
      ESP Fit Center  466 is at   1.441074 -1.804759 -1.311284
      ESP Fit Center  467 is at   1.490649 -0.993381 -1.716468
      ESP Fit Center  468 is at  -1.275114 -1.624649 -1.716468
      ESP Fit Center  469 is at  -1.030808 -1.982980 -1.716468
      ESP Fit Center  470 is at  -0.691735 -2.253381 -1.716468
      ESP Fit Center  471 is at  -0.288025 -2.411826 -1.716468
      ESP Fit Center  472 is at   0.144453 -2.444236 -1.716468
      ESP Fit Center  473 is at   0.567269 -2.347731 -1.716468
      ESP Fit Center  474 is at   0.942856 -2.130886 -1.716468
      ESP Fit Center  475 is at   1.237840 -1.812968 -1.716468
      ESP Fit Center  476 is at   1.426011 -1.422227 -1.716468
      ESP Fit Center  477 is at   1.223666 -0.993381 -2.064408
      ESP Fit Center  478 is at   1.143447 -0.564248 -2.064408
      ESP Fit Center  479 is at   0.913624 -0.193072 -2.064408
      ESP Fit Center  480 is at   0.565236  0.070018 -2.064408
      ESP Fit Center  481 is at   0.145335  0.189491 -2.064408
      ESP Fit Center  482 is at  -0.289369  0.149209 -2.064408
      ESP Fit Center  483 is at  -0.680167 -0.045385 -2.064408
      ESP Fit Center  484 is at  -0.974280 -0.368012 -2.064408
      ESP Fit Center  485 is at  -1.131986 -0.775098 -2.064408
      ESP Fit Center  486 is at  -1.131986 -1.211665 -2.064408
      ESP Fit Center  487 is at  -0.974280 -1.618751 -2.064408
      ESP Fit Center  488 is at  -0.680167 -1.941377 -2.064408
      ESP Fit Center  489 is at  -0.289369 -2.135972 -2.064408
      ESP Fit Center  490 is at   0.145335 -2.176253 -2.064408
      ESP Fit Center  491 is at   0.565236 -2.056781 -2.064408
      ESP Fit Center  492 is at   0.913624 -1.793691 -2.064408
      ESP Fit Center  493 is at   1.143447 -1.422514 -2.064408
      ESP Fit Center  494 is at   0.875726 -0.993381 -2.331391
      ESP Fit Center  495 is at   0.763188 -0.573381 -2.331391
      ESP Fit Center  496 is at   0.455726 -0.265920 -2.331391
      ESP Fit Center  497 is at   0.035726 -0.153381 -2.331391
      ESP Fit Center  498 is at  -0.384274 -0.265920 -2.331391
      ESP Fit Center  499 is at  -0.691735 -0.573381 -2.331391
      ESP Fit Center  500 is at  -0.804274 -0.993381 -2.331391
      ESP Fit Center  501 is at  -0.691735 -1.413381 -2.331391
      ESP Fit Center  502 is at  -0.384274 -1.720843 -2.331391
      ESP Fit Center  503 is at   0.035726 -1.833381 -2.331391
      ESP Fit Center  504 is at   0.455726 -1.720843 -2.331391
      ESP Fit Center  505 is at   0.763188 -1.413381 -2.331391
      ESP Fit Center  506 is at   0.470542 -0.993381 -2.499224
      ESP Fit Center  507 is at   0.253134 -0.616820 -2.499224
      ESP Fit Center  508 is at  -0.181682 -0.616820 -2.499224
      ESP Fit Center  509 is at  -0.399090 -0.993381 -2.499224
      ESP Fit Center  510 is at  -0.181682 -1.369943 -2.499224
      ESP Fit Center  511 is at   0.253134 -1.369943 -2.499224
      ESP Fit Center  512 is at   0.035726 -0.993381 -2.556468
      ESP Fit Center  513 is at   0.035625 -0.993464  2.556481
      ESP Fit Center  514 is at   0.470441 -0.993464  2.499237
      ESP Fit Center  515 is at   0.253033 -0.616902  2.499237
      ESP Fit Center  516 is at  -0.181783 -0.616902  2.499237
      ESP Fit Center  517 is at  -0.399191 -0.993464  2.499237
      ESP Fit Center  518 is at  -0.181783 -1.370026  2.499237
      ESP Fit Center  519 is at   0.253033 -1.370026  2.499237
      ESP Fit Center  520 is at   0.875625 -0.993464  2.331404
      ESP Fit Center  521 is at   0.763086 -0.573464  2.331404
      ESP Fit Center  522 is at   0.455625 -0.266003  2.331404
      ESP Fit Center  523 is at   0.035625 -0.153464  2.331404
      ESP Fit Center  524 is at  -0.384375 -0.266003  2.331404
      ESP Fit Center  525 is at  -0.691837 -0.573464  2.331404
      ESP Fit Center  526 is at  -0.804375 -0.993464  2.331404
      ESP Fit Center  527 is at  -0.691837 -1.413464  2.331404
      ESP Fit Center  528 is at  -0.384375 -1.720925  2.331404
      ESP Fit Center  529 is at   0.035625 -1.833464  2.331404
      ESP Fit Center  530 is at   0.455625 -1.720925  2.331404
      ESP Fit Center  531 is at   0.763086 -1.413464  2.331404
      ESP Fit Center  532 is at   1.223564 -0.993464  2.064421
      ESP Fit Center  533 is at   1.143345 -0.564331  2.064421
      ESP Fit Center  534 is at   0.913523 -0.193155  2.064421
      ESP Fit Center  535 is at   0.565135  0.069936  2.064421
      ESP Fit Center  536 is at   0.145234  0.189408  2.064421
      ESP Fit Center  537 is at  -0.289470  0.149126  2.064421
      ESP Fit Center  538 is at  -0.680269 -0.045468  2.064421
      ESP Fit Center  539 is at  -0.974382 -0.368095  2.064421
      ESP Fit Center  540 is at  -1.132088 -0.775181  2.064421
      ESP Fit Center  541 is at  -1.132088 -1.211747  2.064421
      ESP Fit Center  542 is at  -0.974382 -1.618834  2.064421
      ESP Fit Center  543 is at  -0.680269 -1.941460  2.064421
      ESP Fit Center  544 is at  -0.289470 -2.136055  2.064421
      ESP Fit Center  545 is at   0.145234 -2.176336  2.064421
      ESP Fit Center  546 is at   0.565135 -2.056864  2.064421
      ESP Fit Center  547 is at   0.913523 -1.793774  2.064421
      ESP Fit Center  548 is at   1.143345 -1.422597  2.064421
      ESP Fit Center  549 is at   1.490547 -0.993464  1.716481
      ESP Fit Center  550 is at  -1.275215 -1.624731  1.716481
      ESP Fit Center  551 is at  -1.030909 -1.983063  1.716481
      ESP Fit Center  552 is at  -0.691837 -2.253464  1.716481
      ESP Fit Center  553 is at  -0.288126 -2.411909  1.716481
      ESP Fit Center  554 is at   0.144351 -2.444319  1.716481
      ESP Fit Center  555 is at   0.567168 -2.347813  1.716481
      ESP Fit Center  556 is at   0.942754 -2.130969  1.716481
      ESP Fit Center  557 is at   1.237738 -1.813051  1.716481
      ESP Fit Center  558 is at   1.425909 -1.422310  1.716481
      ESP Fit Center  559 is at  -1.111837 -2.140925  1.311297
      ESP Fit Center  560 is at  -0.775753 -2.398812  1.311297
      ESP Fit Center  561 is at  -0.384375 -2.560925  1.311297
      ESP Fit Center  562 is at   0.035625 -2.616220  1.311297
      ESP Fit Center  563 is at   0.455625 -2.560925  1.311297
      ESP Fit Center  564 is at   0.847002 -2.398812  1.311297
      ESP Fit Center  565 is at   1.183086 -2.140925  1.311297
      ESP Fit Center  566 is at   1.440972 -1.804842  1.311297
      ESP Fit Center  567 is at  -1.035248 -2.287926  0.876481
      ESP Fit Center  568 is at  -0.679684 -2.513574  0.876481
      ESP Fit Center  569 is at  -0.279176 -2.643707  0.876481
      ESP Fit Center  570 is at   0.141113 -2.670149  0.876481
      ESP Fit Center  571 is at   0.554773 -2.591239  0.876481
      ESP Fit Center  572 is at   0.935814 -2.411935  0.876481
      ESP Fit Center  573 is at   1.260292 -2.143503  0.876481
      ESP Fit Center  574 is at  -1.111837 -2.140925  0.441665
      ESP Fit Center  575 is at  -0.775753 -2.398812  0.441665
      ESP Fit Center  576 is at  -0.384375 -2.560925  0.441665
      ESP Fit Center  577 is at   0.035625 -2.616220  0.441665
      ESP Fit Center  578 is at   0.455625 -2.560925  0.441665
      ESP Fit Center  579 is at   0.847002 -2.398812  0.441665
      ESP Fit Center  580 is at   1.183086 -2.140925  0.441665
      ESP Fit Center  581 is at   0.144351 -2.444319  0.036481
      ESP Fit Center  582 is at   1.311529 -0.327327  1.940207
      ESP Fit Center  583 is at   1.713346 -0.219660  1.940207
      ESP Fit Center  584 is at   2.730559  1.969127  0.409749
      ESP Fit Center  585 is at   2.796453  1.961233  0.000060
      ESP Fit Center  586 is at   2.478226  2.222395  0.000060
      ESP Fit Center  587 is at   2.115164  2.416456  0.000060
      ESP Fit Center  588 is at   1.721218  2.535958  0.000060
      ESP Fit Center  589 is at   1.311529  2.576309  0.000060
      ESP Fit Center  590 is at   0.901839  2.535958  0.000060
      ESP Fit Center  591 is at   0.507894  2.416456  0.000060
      ESP Fit Center  592 is at   0.144831  2.222395  0.000060
      ESP Fit Center  593 is at   2.730559  1.969127 -0.409630
      ESP Fit Center  594 is at   1.311529 -0.327327 -1.940087
      ESP Fit Center  595 is at   1.713346 -0.219660 -1.940087
      ESP Fit Center  596 is at   1.344172  1.121940  2.565728
      ESP Fit Center  597 is at   1.778988  1.121940  2.508483
      ESP Fit Center  598 is at   1.561580  1.498501  2.508483
      ESP Fit Center  599 is at   1.126764  1.498501  2.508483
      ESP Fit Center  600 is at   0.909356  1.121940  2.508483
      ESP Fit Center  601 is at   1.126764  0.745378  2.508483
      ESP Fit Center  602 is at   1.561580  0.745378  2.508483
      ESP Fit Center  603 is at   2.184172  1.121940  2.340650
      ESP Fit Center  604 is at   2.071633  1.541940  2.340650
      ESP Fit Center  605 is at   1.764172  1.849401  2.340650
      ESP Fit Center  606 is at   1.344172  1.961940  2.340650
      ESP Fit Center  607 is at   0.924172  1.849401  2.340650
      ESP Fit Center  608 is at   0.616711  1.541940  2.340650
      ESP Fit Center  609 is at   0.504172  1.121940  2.340650
      ESP Fit Center  610 is at   0.616711  0.701940  2.340650
      ESP Fit Center  611 is at   0.924172  0.394478  2.340650
      ESP Fit Center  612 is at   1.344172  0.281940  2.340650
      ESP Fit Center  613 is at   1.764172  0.394478  2.340650
      ESP Fit Center  614 is at   2.071633  0.701940  2.340650
      ESP Fit Center  615 is at   2.532111  1.121940  2.073667
      ESP Fit Center  616 is at   2.451893  1.551073  2.073667
      ESP Fit Center  617 is at   2.222070  1.922249  2.073667
      ESP Fit Center  618 is at   1.873682  2.185339  2.073667
      ESP Fit Center  619 is at   1.453781  2.304811  2.073667
      ESP Fit Center  620 is at   1.019077  2.264530  2.073667
      ESP Fit Center  621 is at   0.628279  2.069936  2.073667
      ESP Fit Center  622 is at   0.334166  1.747309  2.073667
      ESP Fit Center  623 is at   0.176460  1.340223  2.073667
      ESP Fit Center  624 is at   0.176460  0.903656  2.073667
      ESP Fit Center  625 is at   0.334166  0.496570  2.073667
      ESP Fit Center  626 is at   0.628279  0.173943  2.073667
      ESP Fit Center  627 is at   1.019077 -0.020651  2.073667
      ESP Fit Center  628 is at   1.453781 -0.060932  2.073667
      ESP Fit Center  629 is at   1.873682  0.058540  2.073667
      ESP Fit Center  630 is at   2.222070  0.321630  2.073667
      ESP Fit Center  631 is at   2.451893  0.692806  2.073667
      ESP Fit Center  632 is at   2.799095  1.121940  1.725728
      ESP Fit Center  633 is at   2.734457  1.550786  1.725728
      ESP Fit Center  634 is at   2.546286  1.941527  1.725728
      ESP Fit Center  635 is at   2.251301  2.259444  1.725728
      ESP Fit Center  636 is at   1.875715  2.476289  1.725728
      ESP Fit Center  637 is at   1.452899  2.572794  1.725728
      ESP Fit Center  638 is at   1.020421  2.540384  1.725728
      ESP Fit Center  639 is at   0.616711  2.381940  1.725728
      ESP Fit Center  640 is at   0.277638  2.111538  1.725728
      ESP Fit Center  641 is at   2.734457  0.693094  1.725728
      ESP Fit Center  642 is at   2.966927  1.121940  1.320544
      ESP Fit Center  643 is at   2.911633  1.541940  1.320544
[...]
 3845 Fit       0.002744
 3846 Fit       0.002786
 3847 Fit       0.003051
 3848 Fit       0.003671
 3849 Fit       0.003975
 3850 Fit       0.004338
 3851 Fit       0.004360
 3852 Fit       0.004153
 3853 Fit       0.003820
 3854 Fit       0.003424
 3855 Fit       0.003052
 3856 Fit       0.002842
 3857 Fit       0.002824
 3858 Fit       0.002877
 3859 Fit       0.003022
 3860 Fit       0.003413
 3861 Fit       0.003725
 3862 Fit       0.003945
 3863 Fit       0.003708
 3864 Fit       0.003314
 3865 Fit       0.003137
 3866 Fit       0.003289
 3867 Fit       0.003526
 3868 Fit       0.003054
 3869 Fit      -0.005018
 3870 Fit      -0.006164
 3871 Fit      -0.007719
 3872 Fit      -0.009774
 3873 Fit      -0.012495
 3874 Fit      -0.016148
 3875 Fit      -0.021149
 3876 Fit      -0.005018
 3877 Fit      -0.006164
 3878 Fit      -0.007719
 3879 Fit      -0.009774
 3880 Fit      -0.012495
 3881 Fit      -0.016148
 3882 Fit      -0.021149
 3883 Fit       0.003047
 3884 Fit      -0.005279
 3885 Fit      -0.006593
 3886 Fit      -0.008344
 3887 Fit      -0.010682
 3888 Fit      -0.013861
 3889 Fit      -0.003792
 3890 Fit      -0.004885
 3891 Fit      -0.006241
 3892 Fit      -0.007980
 3893 Fit      -0.010254
 3894 Fit      -0.013285
 3895 Fit      -0.017422
 3896 Fit      -0.002521
 3897 Fit      -0.003686
 3898 Fit      -0.004969
 3899 Fit      -0.006537
 3900 Fit      -0.008534
 3901 Fit      -0.011136
 3902 Fit      -0.014592
 3903 Fit      -0.019268
 3904 Fit      -0.002115
 3905 Fit      -0.003367
 3906 Fit      -0.004754
 3907 Fit      -0.006440
 3908 Fit      -0.008571
 3909 Fit      -0.011317
 3910 Fit      -0.014888
 3911 Fit      -0.019534
 3912 Fit      -0.000611
 3913 Fit      -0.001900
 3914 Fit      -0.003169
 3915 Fit      -0.004607
 3916 Fit      -0.006347
 3917 Fit      -0.008505
 3918 Fit      -0.011190
 3919 Fit      -0.014482
 3920 Fit      -0.018350
 3921 Fit       0.000253
 3922 Fit      -0.001041
 3923 Fit      -0.002308
 3924 Fit      -0.003713
 3925 Fit      -0.005379
 3926 Fit      -0.007386
 3927 Fit      -0.009758
 3928 Fit      -0.012398
 3929 Fit      -0.014949
 3930 Fit      -0.010081
 3931 Fit       0.000793
 3932 Fit      -0.000368
 3933 Fit      -0.001574
 3934 Fit      -0.002909
 3935 Fit      -0.004450
 3936 Fit      -0.006213
 3937 Fit      -0.008097
 3938 Fit      -0.009793
 3939 Fit      -0.010706
 3940 Fit      -0.006177
 3941 Fit      -0.004248
 3942 Fit      -0.001656
 3943 Fit       0.000559
 3944 Fit       0.001892
 3945 Fit       0.002481
 3946 Fit       0.002594
 3947 Fit       0.002442
 3948 Fit       0.002227
 3949 Fit       0.001934
 3950 Fit       0.001359
 3951 Fit       0.000472
 3952 Fit      -0.000610
 3953 Fit      -0.001843
 3954 Fit      -0.003234
 3955 Fit      -0.004719
 3956 Fit      -0.006049
 3957 Fit      -0.006731
 3958 Fit      -0.003575
 3959 Fit      -0.001967
 3960 Fit      -0.000081
 3961 Fit       0.001144
 3962 Fit       0.001605
 3963 Fit       0.001572
 3964 Fit       0.001222
 3965 Fit       0.000513
 3966 Fit      -0.000544
 3967 Fit      -0.001827
 3968 Fit      -0.003120
 3969 Fit      -0.003930
 3970 Fit      -0.001774
 3971 Fit      -0.000375
 3972 Fit       0.000604
 3973 Fit       0.000465
 3974 Fit      -0.000521
 3975 Fit      -0.001718
 3976 Fit      -0.000488
 3977 Fit      -0.000482
 3978 Fit      -0.001766
 3979 Fit      -0.000367
 3980 Fit       0.000610
 3981 Fit       0.000470
 3982 Fit      -0.000516
 3983 Fit      -0.001711
 3984 Fit      -0.003564
 3985 Fit      -0.001956
 3986 Fit      -0.000072
 3987 Fit       0.001151
 3988 Fit       0.001610
 3989 Fit       0.001576
 3990 Fit       0.001227
 3991 Fit       0.000518
 3992 Fit      -0.000539
 3993 Fit      -0.001821
 3994 Fit      -0.003113
 3995 Fit      -0.003921
 3996 Fit      -0.006163
 3997 Fit      -0.004233
 3998 Fit      -0.001642
 3999 Fit       0.000571
 4000 Fit       0.001900
 4001 Fit       0.002486
 4002 Fit       0.002598
 4003 Fit       0.002446
 4004 Fit       0.002231
 4005 Fit       0.001938
 4006 Fit       0.001363
 4007 Fit       0.000476
 4008 Fit      -0.000605
 4009 Fit      -0.001838
 4010 Fit      -0.003228
 4011 Fit      -0.004711
 4012 Fit      -0.006040
 4013 Fit      -0.006719
 4014 Fit      -0.010061
 4015 Fit       0.000797
 4016 Fit      -0.000365
 4017 Fit      -0.001570
 4018 Fit      -0.002904
 4019 Fit      -0.004444
 4020 Fit      -0.006206
 4021 Fit      -0.008088
 4022 Fit      -0.009781
 4023 Fit      -0.010690
 4024 Fit       0.000256
 4025 Fit      -0.001038
 4026 Fit      -0.002304
 4027 Fit      -0.003710
 4028 Fit      -0.005375
 4029 Fit      -0.007380
 4030 Fit      -0.009750
 4031 Fit      -0.012387
 4032 Fit      -0.014934
 4033 Fit      -0.000608
 4034 Fit      -0.001898
 4035 Fit      -0.003166
 4036 Fit      -0.004604
 4037 Fit      -0.006343
 4038 Fit      -0.008500
 4039 Fit      -0.011184
 4040 Fit      -0.014473
 4041 Fit      -0.018338
 4042 Fit      -0.002112
 4043 Fit      -0.003364
 4044 Fit      -0.004751
 4045 Fit      -0.006437
 4046 Fit      -0.008568
 4047 Fit      -0.011312
 4048 Fit      -0.014881
 4049 Fit      -0.019526
 4050 Fit      -0.002519
 4051 Fit      -0.003685
 4052 Fit      -0.004967
 4053 Fit      -0.006535
 4054 Fit      -0.008532
 4055 Fit      -0.011133
 4056 Fit      -0.014588
 4057 Fit      -0.019262
 4058 Fit      -0.003791
 4059 Fit      -0.004883
 4060 Fit      -0.006239
 4061 Fit      -0.007979
 4062 Fit      -0.010252
 4063 Fit      -0.013282
 4064 Fit      -0.017419
 4065 Fit      -0.005278
 4066 Fit      -0.006592
 4067 Fit      -0.008343
 4068 Fit      -0.010681
 4069 Fit      -0.013859
 4070 Fit      -0.004017
 4071 Fit      -0.005351
 4072 Fit      -0.008000
 4073 Fit      -0.009614
 4074 Fit       0.014215
 4075 Fit       0.013158
 4076 Fit       0.010883
 4077 Fit       0.013556
 4078 Fit       0.011043
 4079 Fit       0.009197
 4080 Fit       0.007849
 4081 Fit       0.006876
 4082 Fit       0.006177
 4083 Fit       0.005654
 4084 Fit       0.005203
 4085 Fit       0.004705
 4086 Fit       0.013553
 4087 Fit       0.011040
 4088 Fit       0.009195
 4089 Fit       0.007847
 4090 Fit       0.006875
 4091 Fit       0.006176
 4092 Fit       0.005653
 4093 Fit       0.005202
 4094 Fit       0.004704
 4095 Fit       0.013147
 4096 Fit       0.010875
 4097 Fit       0.014194
 4098 Fit      -0.008020
 4099 Fit      -0.009642
 4100 Fit      -0.004035
 4101 Fit      -0.005375
 4102 Fit       0.002808
 4103 Fit       0.002526
 4104 Fit       0.003702
 4105 Fit       0.003875
 4106 Fit       0.003189
 4107 Fit       0.001907
 4108 Fit       0.001345
 4109 Fit       0.002401
 4110 Fit       0.003841
 4111 Fit       0.004551
 4112 Fit       0.004750
 4113 Fit       0.004656
 4114 Fit       0.004328
 4115 Fit       0.003656
 4116 Fit       0.002543
 4117 Fit       0.001062
 4118 Fit      -0.000347
 4119 Fit      -0.000696
 4120 Fit       0.000515
 4121 Fit       0.002547
 4122 Fit       0.004153
 4123 Fit       0.005001
 4124 Fit       0.005337
 4125 Fit       0.005397
 4126 Fit       0.005330
 4127 Fit       0.005218
 4128 Fit       0.005078
 4129 Fit       0.004818
 4130 Fit       0.004258
 4131 Fit       0.003327
 4132 Fit       0.002061
 4133 Fit       0.000393
 4134 Fit      -0.001604
 4135 Fit      -0.003275
 4136 Fit      -0.003628
 4137 Fit      -0.002242
 4138 Fit       0.000198
 4139 Fit       0.003170
 4140 Fit       0.004916
 4141 Fit       0.005755
 4142 Fit       0.006039
 4143 Fit       0.006039
 4144 Fit       0.005918
 4145 Fit       0.005768
 4146 Fit       0.005644
 4147 Fit       0.005594
 4148 Fit       0.005645
 4149 Fit      -0.003354
 4150 Fit       0.000299
 4151 Fit       0.004623
 4152 Fit       0.006354
 4153 Fit       0.006986
 4154 Fit       0.007034
 4155 Fit       0.006828
 4156 Fit       0.006543
 4157 Fit       0.006260
 4158 Fit       0.006020
 4159 Fit       0.005855
 4160 Fit       0.005814
 4161 Fit       0.008781
 4162 Fit       0.008880
 4163 Fit       0.008467
 4164 Fit       0.007900
 4165 Fit       0.007342
 4166 Fit       0.006854
 4167 Fit       0.006453
 4168 Fit       0.006140
 4169 Fit       0.005924
 4170 Fit       0.005842
 4171 Fit       0.011601
 4172 Fit       0.010314
 4173 Fit       0.009140
 4174 Fit       0.008166
 4175 Fit       0.007393
 4176 Fit       0.006794
 4177 Fit       0.006338
 4178 Fit       0.006000
 4179 Fit       0.005781
 4180 Fit       0.005736
 4181 Fit       0.012680
 4182 Fit       0.010670
 4183 Fit       0.009157
 4184 Fit       0.008029
 4185 Fit       0.007190
 4186 Fit       0.006567
 4187 Fit       0.006105
 4188 Fit       0.005763
 4189 Fit       0.005529
 4190 Fit       0.012212
 4191 Fit       0.010087
 4192 Fit       0.008577
 4193 Fit       0.007495
 4194 Fit       0.006715
 4195 Fit       0.006147
 4196 Fit       0.005723
 4197 Fit       0.005388
 4198 Fit       0.005120
 4199 Fit       0.007432
 4200 Fit       0.006582
 4201 Fit       0.005983
 4202 Fit       0.005535
 4203 Fit       0.007428
 4204 Fit       0.006579
 4205 Fit       0.005980
 4206 Fit       0.005533
 4207 Fit       0.012197
 4208 Fit       0.010077
 4209 Fit       0.008569
 4210 Fit       0.007488
 4211 Fit       0.006710
 4212 Fit       0.006143
 4213 Fit       0.005719
 4214 Fit       0.005385
 4215 Fit       0.005116
 4216 Fit       0.012656
 4217 Fit       0.010653
 4218 Fit       0.009144
 4219 Fit       0.008019
 4220 Fit       0.007182
 4221 Fit       0.006560
 4222 Fit       0.006099
 4223 Fit       0.005757
 4224 Fit       0.005524
 4225 Fit       0.011567
 4226 Fit       0.010290
 4227 Fit       0.009122
 4228 Fit       0.008152
 4229 Fit       0.007382
 4230 Fit       0.006785
 4231 Fit       0.006330
 4232 Fit       0.005994
 4233 Fit       0.005774
 4234 Fit       0.005730
 4235 Fit       0.008740
 4236 Fit       0.008848
 4237 Fit       0.008443
 4238 Fit       0.007882
 4239 Fit       0.007328
 4240 Fit       0.006843
 4241 Fit       0.006443
 4242 Fit       0.006132
 4243 Fit       0.005916
 4244 Fit       0.005835
 4245 Fit       0.004580
 4246 Fit       0.006319
 4247 Fit       0.006959
 4248 Fit       0.007013
 4249 Fit       0.006812
 4250 Fit       0.006529
 4251 Fit       0.006249
 4252 Fit       0.006011
 4253 Fit       0.005846
 4254 Fit       0.005807
 4255 Fit       0.003136
 4256 Fit       0.004887
 4257 Fit       0.005732
 4258 Fit       0.006020
 4259 Fit       0.006024
 4260 Fit       0.005906
 4261 Fit       0.005757
 4262 Fit       0.005635
 4263 Fit       0.005586
 4264 Fit       0.005639
 4265 Fit      -0.003396
 4266 Fit       0.000260
 4267 Fit       0.002519
 4268 Fit       0.004129
 4269 Fit       0.004981
 4270 Fit       0.005322
 4271 Fit       0.005384
 4272 Fit       0.005319
 4273 Fit       0.005209
 4274 Fit       0.005070
 4275 Fit       0.004811
 4276 Fit       0.004251
 4277 Fit       0.003320
 4278 Fit       0.002052
 4279 Fit       0.000382
 4280 Fit      -0.001619
 4281 Fit      -0.003296
 4282 Fit      -0.003655
 4283 Fit      -0.002272
 4284 Fit       0.000167
 4285 Fit       0.002378
 4286 Fit       0.003821
 4287 Fit       0.004536
 4288 Fit       0.004737
 4289 Fit       0.004645
 4290 Fit       0.004318
 4291 Fit       0.003646
 4292 Fit       0.002532
 4293 Fit       0.001049
 4294 Fit      -0.000364
 4295 Fit      -0.000718
 4296 Fit       0.000491
 4297 Fit       0.002508
 4298 Fit       0.003686
 4299 Fit       0.003862
 4300 Fit       0.003176
 4301 Fit       0.001893
 4302 Fit       0.001327
 4303 Fit       0.002793
 4304 Fit      -0.009779
 4305 Fit      -0.009759
 4306 Fit      -0.006937
 4307 Fit      -0.012090
 4308 Fit      -0.012530
 4309 Fit      -0.008863
 4310 Fit      -0.005736
 4311 Fit      -0.003616
 4312 Fit      -0.010724
 4313 Fit      -0.013850
 4314 Fit      -0.015411
 4315 Fit      -0.014781
 4316 Fit      -0.012270
 4317 Fit      -0.007115
 4318 Fit      -0.003873
 4319 Fit      -0.001457
 4320 Fit       0.000096
 4321 Fit      -0.015070
 4322 Fit      -0.017171
 4323 Fit      -0.017655
 4324 Fit      -0.016537
 4325 Fit      -0.014076
 4326 Fit      -0.010731
 4327 Fit      -0.004595
 4328 Fit      -0.001213
 4329 Fit       0.003098
 4330 Fit      -0.018324
 4331 Fit      -0.019452
 4332 Fit      -0.019251
 4333 Fit      -0.017832
 4334 Fit      -0.015368
 4335 Fit      -0.012106
 4336 Fit      -0.008377
 4337 Fit      -0.020304
 4338 Fit      -0.021003
 4339 Fit      -0.020558
 4340 Fit      -0.019067
 4341 Fit      -0.016645
 4342 Fit      -0.013443
 4343 Fit      -0.009657
 4344 Fit      -0.005548
 4345 Fit      -0.019808
 4346 Fit      -0.021566
 4347 Fit      -0.022169
 4348 Fit      -0.021731
 4349 Fit      -0.020329
 4350 Fit      -0.018042
 4351 Fit      -0.014967
 4352 Fit      -0.011224
 4353 Fit      -0.006973
 4354 Fit      -0.021104
 4355 Fit      -0.022576
 4356 Fit      -0.023057
 4357 Fit      -0.022622
 4358 Fit      -0.021321
 4359 Fit      -0.019207
 4360 Fit      -0.016340
 4361 Fit      -0.012794
 4362 Fit      -0.008659
 4363 Fit      -0.004063
 4364 Fit      -0.021633
 4365 Fit      -0.023093
 4366 Fit      -0.023680
 4367 Fit      -0.023433
 4368 Fit      -0.022378
 4369 Fit      -0.020548
 4370 Fit      -0.017984
 4371 Fit      -0.014732
 4372 Fit      -0.010849
 4373 Fit      -0.006403
 4374 Fit      -0.022680
 4375 Fit      -0.023796
 4376 Fit      -0.024107
 4377 Fit      -0.023610
 4378 Fit      -0.022317
 4379 Fit      -0.020254
 4380 Fit      -0.017456
 4381 Fit      -0.013961
 4382 Fit      -0.009816
 4383 Fit      -0.005076
 4384 Fit      -0.021786
 4385 Fit      -0.023342
 4386 Fit      -0.024180
 4387 Fit      -0.024256
 4388 Fit      -0.023553
 4389 Fit      -0.022079
 4390 Fit      -0.019858
 4391 Fit      -0.016921
 4392 Fit      -0.013301
 4393 Fit      -0.009037
 4394 Fit      -0.004176
 4395 Fit      -0.021786
 4396 Fit      -0.023342
 4397 Fit      -0.024181
 4398 Fit      -0.024257
 4399 Fit      -0.023554
 4400 Fit      -0.022081
 4401 Fit      -0.019860
 4402 Fit      -0.016923
 4403 Fit      -0.013304
 4404 Fit      -0.009041
 4405 Fit      -0.004182
 4406 Fit      -0.022681
 4407 Fit      -0.023798
 4408 Fit      -0.024110
 4409 Fit      -0.023614
 4410 Fit      -0.022322
 4411 Fit      -0.020260
 4412 Fit      -0.017464
 4413 Fit      -0.013971
 4414 Fit      -0.009828
 4415 Fit      -0.005092
 4416 Fit      -0.021635
 4417 Fit      -0.023095
 4418 Fit      -0.023684
 4419 Fit      -0.023439
 4420 Fit      -0.022386
 4421 Fit      -0.020558
 4422 Fit      -0.017996
 4423 Fit      -0.014748
 4424 Fit      -0.010868
 4425 Fit      -0.006427
 4426 Fit      -0.021107
 4427 Fit      -0.022580
 4428 Fit      -0.023064
 4429 Fit      -0.022631
 4430 Fit      -0.021333
 4431 Fit      -0.019222
 4432 Fit      -0.016359
 4433 Fit      -0.012818
 4434 Fit      -0.008689
 4435 Fit      -0.004099
 4436 Fit      -0.019813
 4437 Fit      -0.021574
 4438 Fit      -0.022179
 4439 Fit      -0.021744
 4440 Fit      -0.020346
 4441 Fit      -0.018063
 4442 Fit      -0.014993
 4443 Fit      -0.011256
 4444 Fit      -0.007013
 4445 Fit      -0.020314
 4446 Fit      -0.021016
 4447 Fit      -0.020575
 4448 Fit      -0.019088
 4449 Fit      -0.016672
 4450 Fit      -0.013477
 4451 Fit      -0.009698
 4452 Fit      -0.005596
 4453 Fit      -0.004649
 4454 Fit      -0.001272
 4455 Fit       0.003038
 4456 Fit      -0.018336
 4457 Fit      -0.019468
 4458 Fit      -0.019271
 4459 Fit      -0.017857
 4460 Fit      -0.015400
 4461 Fit      -0.012145
 4462 Fit      -0.008424
 4463 Fit      -0.007164
 4464 Fit      -0.003927
 4465 Fit      -0.001512
 4466 Fit       0.000045
 4467 Fit      -0.015085
 4468 Fit      -0.017189
 4469 Fit      -0.017678
 4470 Fit      -0.016565
 4471 Fit      -0.014111
 4472 Fit      -0.010774
 4473 Fit      -0.008907
 4474 Fit      -0.005783
 4475 Fit      -0.003661
 4476 Fit      -0.010744
 4477 Fit      -0.013870
 4478 Fit      -0.015436
 4479 Fit      -0.014811
 4480 Fit      -0.012308
 4481 Fit      -0.009798
 4482 Fit      -0.006976
 4483 Fit      -0.012117
 4484 Fit      -0.012561
 4485 Fit      -0.009812
 4486 Fit       0.000637
 4487 Fit       0.003557
 4488 Fit       0.004669
 4489 Fit       0.003472
 4490 Fit       0.006145
 4491 Fit       0.007725
 4492 Fit       0.008356
 4493 Fit       0.008229
 4494 Fit      -0.000402
 4495 Fit       0.005982
 4496 Fit       0.008438
 4497 Fit       0.010076
 4498 Fit       0.010997
 4499 Fit       0.011310
 4500 Fit       0.011171
 4501 Fit      -0.001763
 4502 Fit       0.002613
 4503 Fit       0.008092
 4504 Fit       0.010382
 4505 Fit       0.011996
 4506 Fit       0.013012
 4507 Fit       0.013503
 4508 Fit       0.013557
 4509 Fit       0.013302
 4510 Fit       0.001152
 4511 Fit       0.005046
 4512 Fit       0.009760
 4513 Fit       0.011870
 4514 Fit       0.013422
 4515 Fit       0.014473
 4516 Fit       0.015077
 4517 Fit       0.015284
 4518 Fit       0.015155
 4519 Fit       0.014776
 4520 Fit      -0.000629
 4521 Fit       0.003594
 4522 Fit       0.007026
 4523 Fit       0.010961
 4524 Fit       0.013002
 4525 Fit       0.014524
 4526 Fit       0.015580
 4527 Fit       0.016214
 4528 Fit       0.016469
 4529 Fit       0.016386
 4530 Fit       0.016006
 4531 Fit       0.001073
 4532 Fit       0.005076
 4533 Fit       0.008342
 4534 Fit       0.011684
 4535 Fit       0.013643
 4536 Fit       0.015127
 4537 Fit       0.016181
 4538 Fit       0.016845
 4539 Fit       0.017153
 4540 Fit       0.017138
 4541 Fit       0.016825
 4542 Fit       0.016229
 4543 Fit      -0.002131
 4544 Fit       0.002378
 4545 Fit       0.006122
 4546 Fit       0.009198
 4547 Fit       0.011923
 4548 Fit       0.013840
 4549 Fit       0.015304
 4550 Fit       0.016357
 4551 Fit       0.017034
 4552 Fit       0.017369
 4553 Fit       0.017390
 4554 Fit       0.017119
 4555 Fit       0.016565
 4556 Fit      -0.001430
 4557 Fit       0.002909
 4558 Fit       0.006523
 4559 Fit       0.009504
 4560 Fit       0.011677
 4561 Fit       0.013636
 4562 Fit       0.015121
 4563 Fit       0.016175
 4564 Fit       0.016839
 4565 Fit       0.017147
 4566 Fit       0.017132
 4567 Fit       0.016819
 4568 Fit       0.016222
 4569 Fit      -0.002140
 4570 Fit       0.002370
 4571 Fit       0.006115
 4572 Fit       0.009191
 4573 Fit       0.010947
 4574 Fit       0.012989
 4575 Fit       0.014512
 4576 Fit       0.015567
 4577 Fit       0.016201
 4578 Fit       0.016457
 4579 Fit       0.016373
 4580 Fit       0.015994
 4581 Fit       0.001056
 4582 Fit       0.005061
 4583 Fit       0.008328
 4584 Fit       0.009739
 4585 Fit       0.011850
 4586 Fit       0.013403
 4587 Fit       0.014455
 4588 Fit       0.015058
 4589 Fit       0.015266
 4590 Fit       0.015137
 4591 Fit       0.014757
 4592 Fit      -0.000655
 4593 Fit       0.003571
 4594 Fit       0.007005
 4595 Fit       0.008065
 4596 Fit       0.010355
 4597 Fit       0.011971
 4598 Fit       0.012986
 4599 Fit       0.013478
 4600 Fit       0.013532
 4601 Fit       0.013277
 4602 Fit       0.001120
 4603 Fit       0.005017
 4604 Fit       0.005947
 4605 Fit       0.008404
 4606 Fit       0.010044
 4607 Fit       0.010965
 4608 Fit       0.011278
 4609 Fit       0.011139
 4610 Fit      -0.001805
 4611 Fit       0.002575
 4612 Fit       0.003428
 4613 Fit       0.006104
 4614 Fit       0.007686
 4615 Fit       0.008317
 4616 Fit       0.008189
 4617 Fit      -0.000449
 4618 Fit       0.000586
 4619 Fit       0.003509
 4620 Fit       0.004621
 -----------------------------------------------------------------
 Leave Link  602 at Fri Nov 11 10:16:11 2011, MaxMem=  939524096 cpu:      12.2
 (Enter /pdc/vol/gaussian/G03RevD.01/g03/l9999.exe)

 This type of calculation cannot be archived.


 A BIRD IN THE HAND IS SAFER THAN ONE OVERHEAD.

                       -- NEWTON'S SEVENTH LAW
 Job cpu time:  0 days  0 hours  3 minutes  9.6 seconds.
 File lengths (MBytes):  RWF=     29 Int=      0 D2E=      0 Chk=     22 Scr=      1
 Normal termination of Gaussian 03 at Fri Nov 11 10:16:17 2011.

real	1m9.074s
user	2m26.639s
sys	0m43.479s
